/*--------------------------------*- C++ -*----------------------------------*\
| =========                 |                                                 |
| \\      /  F ield         | OpenFOAM: The Open Source CFD Toolbox           |
|  \\    /   O peration     | Version:  2.4.0                                 |
|   \\  /    A nd           | Web:      www.OpenFOAM.org                      |
|    \\/     M anipulation  |                                                 |
\*---------------------------------------------------------------------------*/
FoamFile
{
    version     2.0;
    format      ascii;
    class       volScalarField;
    location    "0/region2d";
    object      alphaWSS;
}
// * * * * * * * * * * * * * * * * * * * * * * * * * * * * * * * * * * * * * //

dimensions      [0 0 -1 0 0 0 0];

internalField   nonuniform List<scalar> 
400
(
0.00697178
0.006973
0.00697457
0.00697629
0.00697806
0.00697985
0.00698166
0.00698347
0.00698529
0.00698711
0.00698893
0.00699075
0.00699258
0.00699441
0.00699624
0.00699807
0.00699991
0.00700175
0.00700359
0.00700543
0.00700728
0.00700913
0.00701098
0.00701283
0.00701469
0.00701655
0.00701841
0.00702027
0.00702214
0.00702401
0.00702588
0.00702776
0.00702963
0.00703151
0.0070334
0.00703528
0.00703717
0.00703906
0.00704095
0.00704285
0.00704475
0.00704665
0.00704855
0.00705046
0.00705237
0.00705428
0.0070562
0.00705811
0.00706004
0.00706196
0.00706389
0.00706582
0.00706775
0.00706968
0.00707162
0.00707356
0.00707551
0.00707745
0.0070794
0.00708136
0.00708331
0.00708527
0.00708723
0.0070892
0.00709117
0.00709314
0.00709511
0.00709709
0.00709907
0.00710106
0.00710304
0.00710503
0.00710703
0.00710903
0.00711103
0.00711303
0.00711504
0.00711705
0.00711906
0.00712107
0.00712309
0.00712512
0.00712714
0.00712917
0.00713121
0.00713324
0.00713528
0.00713733
0.00713937
0.00714142
0.00714348
0.00714553
0.00714759
0.00714966
0.00715173
0.0071538
0.00715587
0.00715795
0.00716003
0.00716211
0.0071642
0.00716629
0.00716839
0.00717049
0.00717259
0.0071747
0.00717681
0.00717892
0.00718104
0.00718316
0.00718528
0.00718741
0.00718954
0.00719168
0.00719381
0.00719596
0.0071981
0.00720025
0.00720241
0.00720456
0.00720672
0.00720889
0.00721105
0.00721323
0.0072154
0.00721758
0.00721976
0.00722195
0.00722414
0.00722633
0.00722853
0.00723073
0.00723294
0.00723515
0.00723736
0.00723958
0.0072418
0.00724402
0.00724625
0.00724848
0.00725072
0.00725296
0.0072552
0.00725745
0.0072597
0.00726195
0.00726421
0.00726648
0.00726874
0.00727101
0.00727329
0.00727557
0.00727785
0.00728014
0.00728243
0.00728472
0.00728702
0.00728933
0.00729163
0.00729395
0.00729626
0.00729858
0.00730091
0.00730323
0.00730557
0.0073079
0.00731024
0.00731259
0.00731494
0.00731729
0.00731965
0.00732201
0.00732437
0.00732675
0.00732912
0.0073315
0.00733388
0.00733627
0.00733866
0.00734106
0.00734346
0.00734587
0.00734828
0.00735069
0.00735311
0.00735554
0.00735797
0.0073604
0.00736284
0.00736528
0.00736773
0.00737018
0.00737263
0.0073751
0.00737756
0.00738003
0.00738251
0.00738499
0.00738748
0.00738994
0.00697178
0.006973
0.00697457
0.00697629
0.00697806
0.00697985
0.00698166
0.00698347
0.00698529
0.00698711
0.00698893
0.00699075
0.00699258
0.00699441
0.00699624
0.00699807
0.00699991
0.00700175
0.00700359
0.00700543
0.00700728
0.00700913
0.00701098
0.00701283
0.00701469
0.00701655
0.00701841
0.00702027
0.00702214
0.00702401
0.00702588
0.00702776
0.00702963
0.00703151
0.0070334
0.00703528
0.00703717
0.00703906
0.00704095
0.00704285
0.00704475
0.00704665
0.00704855
0.00705046
0.00705237
0.00705428
0.0070562
0.00705811
0.00706004
0.00706196
0.00706389
0.00706582
0.00706775
0.00706968
0.00707162
0.00707356
0.00707551
0.00707745
0.0070794
0.00708136
0.00708331
0.00708527
0.00708723
0.0070892
0.00709117
0.00709314
0.00709511
0.00709709
0.00709907
0.00710106
0.00710304
0.00710503
0.00710703
0.00710903
0.00711103
0.00711303
0.00711504
0.00711705
0.00711906
0.00712107
0.00712309
0.00712512
0.00712714
0.00712917
0.00713121
0.00713324
0.00713528
0.00713733
0.00713937
0.00714142
0.00714348
0.00714553
0.00714759
0.00714966
0.00715173
0.0071538
0.00715587
0.00715795
0.00716003
0.00716211
0.0071642
0.00716629
0.00716839
0.00717049
0.00717259
0.0071747
0.00717681
0.00717892
0.00718104
0.00718316
0.00718528
0.00718741
0.00718954
0.00719168
0.00719381
0.00719596
0.0071981
0.00720025
0.00720241
0.00720456
0.00720672
0.00720889
0.00721105
0.00721323
0.0072154
0.00721758
0.00721976
0.00722195
0.00722414
0.00722633
0.00722853
0.00723073
0.00723294
0.00723515
0.00723736
0.00723958
0.0072418
0.00724402
0.00724625
0.00724848
0.00725072
0.00725296
0.0072552
0.00725745
0.0072597
0.00726195
0.00726421
0.00726648
0.00726874
0.00727101
0.00727329
0.00727557
0.00727785
0.00728014
0.00728243
0.00728472
0.00728702
0.00728933
0.00729163
0.00729395
0.00729626
0.00729858
0.00730091
0.00730323
0.00730557
0.0073079
0.00731024
0.00731259
0.00731494
0.00731729
0.00731965
0.00732201
0.00732437
0.00732675
0.00732912
0.0073315
0.00733388
0.00733627
0.00733866
0.00734106
0.00734346
0.00734587
0.00734828
0.00735069
0.00735311
0.00735554
0.00735797
0.0073604
0.00736284
0.00736528
0.00736773
0.00737018
0.00737263
0.0073751
0.00737756
0.00738003
0.00738251
0.00738499
0.00738748
0.00738994
)
;

boundaryField
{
    front2d
    {
        type            calculated;
        value           uniform 0.00697201;
    }
    back2d
    {
        type            calculated;
        value           uniform 0.00739442;
    }
    bottom2d
    {
        type            empty;
    }
    top2d
    {
        type            empty;
    }
    walls2d
    {
        type            empty;
    }
}


// ************************************************************************* //
