/*--------------------------------*- C++ -*----------------------------------*\
| =========                 |                                                 |
| \\      /  F ield         | OpenFOAM: The Open Source CFD Toolbox           |
|  \\    /   O peration     | Version:  2.4.0                                 |
|   \\  /    A nd           | Web:      www.OpenFOAM.org                      |
|    \\/     M anipulation  |                                                 |
\*---------------------------------------------------------------------------*/
FoamFile
{
    version     2.0;
    format      ascii;
    class       volVectorField;
    location    "0/region2d";
    object      froude;
}
// * * * * * * * * * * * * * * * * * * * * * * * * * * * * * * * * * * * * * //

dimensions      [0 0 0 0 0 0 0];

internalField   nonuniform List<vector> 
400
(
(0.692575 0 0)
(0.69265 0 0)
(0.692749 0 0)
(0.692858 0 0)
(0.692972 0 0)
(0.693087 0 0)
(0.693202 0 0)
(0.693318 0 0)
(0.693434 0 0)
(0.693551 0 0)
(0.693667 0 0)
(0.693784 0 0)
(0.693901 0 0)
(0.694018 0 0)
(0.694135 0 0)
(0.694252 0 0)
(0.694369 0 0)
(0.694487 0 0)
(0.694605 0 0)
(0.694723 0 0)
(0.694841 0 0)
(0.694959 0 0)
(0.695077 0 0)
(0.695195 0 0)
(0.695314 0 0)
(0.695433 0 0)
(0.695551 0 0)
(0.69567 0 0)
(0.69579 0 0)
(0.695909 0 0)
(0.696028 0 0)
(0.696148 0 0)
(0.696268 0 0)
(0.696388 0 0)
(0.696508 0 0)
(0.696628 0 0)
(0.696748 0 0)
(0.696869 0 0)
(0.69699 0 0)
(0.697111 0 0)
(0.697232 0 0)
(0.697353 0 0)
(0.697474 0 0)
(0.697596 0 0)
(0.697717 0 0)
(0.697839 0 0)
(0.697961 0 0)
(0.698083 0 0)
(0.698206 0 0)
(0.698328 0 0)
(0.698451 0 0)
(0.698574 0 0)
(0.698697 0 0)
(0.69882 0 0)
(0.698943 0 0)
(0.699067 0 0)
(0.69919 0 0)
(0.699314 0 0)
(0.699438 0 0)
(0.699563 0 0)
(0.699687 0 0)
(0.699811 0 0)
(0.699936 0 0)
(0.700061 0 0)
(0.700186 0 0)
(0.700312 0 0)
(0.700437 0 0)
(0.700563 0 0)
(0.700689 0 0)
(0.700815 0 0)
(0.700941 0 0)
(0.701067 0 0)
(0.701194 0 0)
(0.701321 0 0)
(0.701448 0 0)
(0.701575 0 0)
(0.701702 0 0)
(0.70183 0 0)
(0.701958 0 0)
(0.702086 0 0)
(0.702214 0 0)
(0.702342 0 0)
(0.702471 0 0)
(0.702599 0 0)
(0.702728 0 0)
(0.702858 0 0)
(0.702987 0 0)
(0.703116 0 0)
(0.703246 0 0)
(0.703376 0 0)
(0.703506 0 0)
(0.703637 0 0)
(0.703767 0 0)
(0.703898 0 0)
(0.704029 0 0)
(0.70416 0 0)
(0.704292 0 0)
(0.704423 0 0)
(0.704555 0 0)
(0.704687 0 0)
(0.704819 0 0)
(0.704952 0 0)
(0.705084 0 0)
(0.705217 0 0)
(0.70535 0 0)
(0.705483 0 0)
(0.705617 0 0)
(0.70575 0 0)
(0.705884 0 0)
(0.706018 0 0)
(0.706153 0 0)
(0.706287 0 0)
(0.706422 0 0)
(0.706557 0 0)
(0.706692 0 0)
(0.706828 0 0)
(0.706963 0 0)
(0.707099 0 0)
(0.707235 0 0)
(0.707371 0 0)
(0.707508 0 0)
(0.707644 0 0)
(0.707781 0 0)
(0.707918 0 0)
(0.708056 0 0)
(0.708193 0 0)
(0.708331 0 0)
(0.708469 0 0)
(0.708607 0 0)
(0.708746 0 0)
(0.708884 0 0)
(0.709023 0 0)
(0.709162 0 0)
(0.709301 0 0)
(0.709441 0 0)
(0.709581 0 0)
(0.709721 0 0)
(0.709861 0 0)
(0.710001 0 0)
(0.710142 0 0)
(0.710283 0 0)
(0.710424 0 0)
(0.710565 0 0)
(0.710707 0 0)
(0.710849 0 0)
(0.710991 0 0)
(0.711133 0 0)
(0.711275 0 0)
(0.711418 0 0)
(0.711561 0 0)
(0.711704 0 0)
(0.711847 0 0)
(0.711991 0 0)
(0.712135 0 0)
(0.712279 0 0)
(0.712423 0 0)
(0.712568 0 0)
(0.712713 0 0)
(0.712858 0 0)
(0.713003 0 0)
(0.713148 0 0)
(0.713294 0 0)
(0.71344 0 0)
(0.713586 0 0)
(0.713733 0 0)
(0.71388 0 0)
(0.714027 0 0)
(0.714174 0 0)
(0.714321 0 0)
(0.714469 0 0)
(0.714617 0 0)
(0.714765 0 0)
(0.714914 0 0)
(0.715062 0 0)
(0.715211 0 0)
(0.715361 0 0)
(0.71551 0 0)
(0.71566 0 0)
(0.71581 0 0)
(0.71596 0 0)
(0.716111 0 0)
(0.716262 0 0)
(0.716413 0 0)
(0.716564 0 0)
(0.716715 0 0)
(0.716867 0 0)
(0.717019 0 0)
(0.717172 0 0)
(0.717324 0 0)
(0.717477 0 0)
(0.717631 0 0)
(0.717784 0 0)
(0.717938 0 0)
(0.718092 0 0)
(0.718246 0 0)
(0.718401 0 0)
(0.718555 0 0)
(0.718713 0 0)
(0.71886 0 0)
(0.719039 0 0)
(0.692575 0 0)
(0.69265 0 0)
(0.692749 0 0)
(0.692858 0 0)
(0.692972 0 0)
(0.693087 0 0)
(0.693202 0 0)
(0.693318 0 0)
(0.693434 0 0)
(0.693551 0 0)
(0.693667 0 0)
(0.693784 0 0)
(0.693901 0 0)
(0.694018 0 0)
(0.694135 0 0)
(0.694252 0 0)
(0.694369 0 0)
(0.694487 0 0)
(0.694605 0 0)
(0.694723 0 0)
(0.694841 0 0)
(0.694959 0 0)
(0.695077 0 0)
(0.695195 0 0)
(0.695314 0 0)
(0.695433 0 0)
(0.695551 0 0)
(0.69567 0 0)
(0.69579 0 0)
(0.695909 0 0)
(0.696028 0 0)
(0.696148 0 0)
(0.696268 0 0)
(0.696388 0 0)
(0.696508 0 0)
(0.696628 0 0)
(0.696748 0 0)
(0.696869 0 0)
(0.69699 0 0)
(0.697111 0 0)
(0.697232 0 0)
(0.697353 0 0)
(0.697474 0 0)
(0.697596 0 0)
(0.697717 0 0)
(0.697839 0 0)
(0.697961 0 0)
(0.698083 0 0)
(0.698206 0 0)
(0.698328 0 0)
(0.698451 0 0)
(0.698574 0 0)
(0.698697 0 0)
(0.69882 0 0)
(0.698943 0 0)
(0.699067 0 0)
(0.69919 0 0)
(0.699314 0 0)
(0.699438 0 0)
(0.699563 0 0)
(0.699687 0 0)
(0.699811 0 0)
(0.699936 0 0)
(0.700061 0 0)
(0.700186 0 0)
(0.700312 0 0)
(0.700437 0 0)
(0.700563 0 0)
(0.700689 0 0)
(0.700815 0 0)
(0.700941 0 0)
(0.701067 0 0)
(0.701194 0 0)
(0.701321 0 0)
(0.701448 0 0)
(0.701575 0 0)
(0.701702 0 0)
(0.70183 0 0)
(0.701958 0 0)
(0.702086 0 0)
(0.702214 0 0)
(0.702342 0 0)
(0.702471 0 0)
(0.702599 0 0)
(0.702728 0 0)
(0.702858 0 0)
(0.702987 0 0)
(0.703116 0 0)
(0.703246 0 0)
(0.703376 0 0)
(0.703506 0 0)
(0.703637 0 0)
(0.703767 0 0)
(0.703898 0 0)
(0.704029 0 0)
(0.70416 0 0)
(0.704292 0 0)
(0.704423 0 0)
(0.704555 0 0)
(0.704687 0 0)
(0.704819 0 0)
(0.704952 0 0)
(0.705084 0 0)
(0.705217 0 0)
(0.70535 0 0)
(0.705483 0 0)
(0.705617 0 0)
(0.70575 0 0)
(0.705884 0 0)
(0.706018 0 0)
(0.706153 0 0)
(0.706287 0 0)
(0.706422 0 0)
(0.706557 0 0)
(0.706692 0 0)
(0.706828 0 0)
(0.706963 0 0)
(0.707099 0 0)
(0.707235 0 0)
(0.707371 0 0)
(0.707508 0 0)
(0.707644 0 0)
(0.707781 0 0)
(0.707918 0 0)
(0.708056 0 0)
(0.708193 0 0)
(0.708331 0 0)
(0.708469 0 0)
(0.708607 0 0)
(0.708746 0 0)
(0.708884 0 0)
(0.709023 0 0)
(0.709162 0 0)
(0.709301 0 0)
(0.709441 0 0)
(0.709581 0 0)
(0.709721 0 0)
(0.709861 0 0)
(0.710001 0 0)
(0.710142 0 0)
(0.710283 0 0)
(0.710424 0 0)
(0.710565 0 0)
(0.710707 0 0)
(0.710849 0 0)
(0.710991 0 0)
(0.711133 0 0)
(0.711275 0 0)
(0.711418 0 0)
(0.711561 0 0)
(0.711704 0 0)
(0.711847 0 0)
(0.711991 0 0)
(0.712135 0 0)
(0.712279 0 0)
(0.712423 0 0)
(0.712568 0 0)
(0.712713 0 0)
(0.712858 0 0)
(0.713003 0 0)
(0.713148 0 0)
(0.713294 0 0)
(0.71344 0 0)
(0.713586 0 0)
(0.713733 0 0)
(0.71388 0 0)
(0.714027 0 0)
(0.714174 0 0)
(0.714321 0 0)
(0.714469 0 0)
(0.714617 0 0)
(0.714765 0 0)
(0.714914 0 0)
(0.715062 0 0)
(0.715211 0 0)
(0.715361 0 0)
(0.71551 0 0)
(0.71566 0 0)
(0.71581 0 0)
(0.71596 0 0)
(0.716111 0 0)
(0.716262 0 0)
(0.716413 0 0)
(0.716564 0 0)
(0.716715 0 0)
(0.716867 0 0)
(0.717019 0 0)
(0.717172 0 0)
(0.717324 0 0)
(0.717477 0 0)
(0.717631 0 0)
(0.717784 0 0)
(0.717938 0 0)
(0.718092 0 0)
(0.718246 0 0)
(0.718401 0 0)
(0.718555 0 0)
(0.718713 0 0)
(0.71886 0 0)
(0.719039 0 0)
)
;

boundaryField
{
    front2d
    {
        type            calculated;
        value           uniform (0.692597 0 0);
    }
    back2d
    {
        type            calculated;
        value           uniform (0.719319 0 0);
    }
    bottom2d
    {
        type            empty;
    }
    top2d
    {
        type            empty;
    }
    walls2d
    {
        type            empty;
    }
}


// ************************************************************************* //
