/*--------------------------------*- C++ -*----------------------------------*\
| =========                 |                                                 |
| \\      /  F ield         | OpenFOAM: The Open Source CFD Toolbox           |
|  \\    /   O peration     | Version:  2.4.0                                 |
|   \\  /    A nd           | Web:      www.OpenFOAM.org                      |
|    \\/     M anipulation  |                                                 |
\*---------------------------------------------------------------------------*/
FoamFile
{
    version     2.0;
    format      ascii;
    class       volScalarField;
    location    "0/region2d";
    object      H;
}
// * * * * * * * * * * * * * * * * * * * * * * * * * * * * * * * * * * * * * //

dimensions      [0 1 0 0 0 0 0];

internalField   nonuniform List<scalar> 
400
(
1.09487
1.09479
1.09468
1.09456
1.09444
1.09432
1.0942
1.09408
1.09396
1.09384
1.09372
1.0936
1.09347
1.09335
1.09323
1.09311
1.09298
1.09286
1.09274
1.09262
1.09249
1.09237
1.09225
1.09212
1.092
1.09188
1.09175
1.09163
1.09151
1.09138
1.09126
1.09113
1.09101
1.09089
1.09076
1.09064
1.09051
1.09039
1.09026
1.09014
1.09001
1.08988
1.08976
1.08963
1.08951
1.08938
1.08925
1.08913
1.089
1.08887
1.08875
1.08862
1.08849
1.08837
1.08824
1.08811
1.08798
1.08785
1.08773
1.0876
1.08747
1.08734
1.08721
1.08708
1.08695
1.08683
1.0867
1.08657
1.08644
1.08631
1.08618
1.08605
1.08592
1.08579
1.08566
1.08552
1.08539
1.08526
1.08513
1.085
1.08487
1.08474
1.0846
1.08447
1.08434
1.08421
1.08408
1.08394
1.08381
1.08368
1.08354
1.08341
1.08328
1.08314
1.08301
1.08287
1.08274
1.08261
1.08247
1.08234
1.0822
1.08207
1.08193
1.0818
1.08166
1.08152
1.08139
1.08125
1.08112
1.08098
1.08084
1.0807
1.08057
1.08043
1.08029
1.08016
1.08002
1.07988
1.07974
1.0796
1.07946
1.07933
1.07919
1.07905
1.07891
1.07877
1.07863
1.07849
1.07835
1.07821
1.07807
1.07793
1.07779
1.07765
1.07751
1.07736
1.07722
1.07708
1.07694
1.0768
1.07666
1.07651
1.07637
1.07623
1.07608
1.07594
1.0758
1.07565
1.07551
1.07537
1.07522
1.07508
1.07493
1.07479
1.07464
1.0745
1.07435
1.07421
1.07406
1.07392
1.07377
1.07362
1.07348
1.07333
1.07319
1.07304
1.07289
1.07274
1.0726
1.07245
1.0723
1.07215
1.072
1.07185
1.07171
1.07156
1.07141
1.07126
1.07111
1.07096
1.07081
1.07066
1.07051
1.07036
1.07021
1.07005
1.0699
1.06975
1.0696
1.06945
1.06929
1.06914
1.06899
1.06884
1.06868
1.06853
1.06837
1.06823
1.06805
1.06795
1.09487
1.09479
1.09468
1.09456
1.09444
1.09432
1.0942
1.09408
1.09396
1.09384
1.09372
1.0936
1.09347
1.09335
1.09323
1.09311
1.09298
1.09286
1.09274
1.09262
1.09249
1.09237
1.09225
1.09212
1.092
1.09188
1.09175
1.09163
1.09151
1.09138
1.09126
1.09113
1.09101
1.09089
1.09076
1.09064
1.09051
1.09039
1.09026
1.09014
1.09001
1.08988
1.08976
1.08963
1.08951
1.08938
1.08925
1.08913
1.089
1.08887
1.08875
1.08862
1.08849
1.08837
1.08824
1.08811
1.08798
1.08785
1.08773
1.0876
1.08747
1.08734
1.08721
1.08708
1.08695
1.08683
1.0867
1.08657
1.08644
1.08631
1.08618
1.08605
1.08592
1.08579
1.08566
1.08552
1.08539
1.08526
1.08513
1.085
1.08487
1.08474
1.0846
1.08447
1.08434
1.08421
1.08408
1.08394
1.08381
1.08368
1.08354
1.08341
1.08328
1.08314
1.08301
1.08287
1.08274
1.08261
1.08247
1.08234
1.0822
1.08207
1.08193
1.0818
1.08166
1.08152
1.08139
1.08125
1.08112
1.08098
1.08084
1.0807
1.08057
1.08043
1.08029
1.08016
1.08002
1.07988
1.07974
1.0796
1.07946
1.07933
1.07919
1.07905
1.07891
1.07877
1.07863
1.07849
1.07835
1.07821
1.07807
1.07793
1.07779
1.07765
1.07751
1.07736
1.07722
1.07708
1.07694
1.0768
1.07666
1.07651
1.07637
1.07623
1.07608
1.07594
1.0758
1.07565
1.07551
1.07537
1.07522
1.07508
1.07493
1.07479
1.07464
1.0745
1.07435
1.07421
1.07406
1.07392
1.07377
1.07362
1.07348
1.07333
1.07319
1.07304
1.07289
1.07274
1.0726
1.07245
1.0723
1.07215
1.072
1.07185
1.07171
1.07156
1.07141
1.07126
1.07111
1.07096
1.07081
1.07066
1.07051
1.07036
1.07021
1.07005
1.0699
1.06975
1.0696
1.06945
1.06929
1.06914
1.06899
1.06884
1.06868
1.06853
1.06837
1.06823
1.06805
1.06795
)
;

boundaryField
{
    front2d
    {
        type            zeroGradient;
    }
    back2d
    {
        type            sifFlowdepth;
        refValue        uniform 1.06767;
        refGradient     uniform 0;
        valueFraction   uniform 1;
        neighbourFieldName alpha1;
        value           uniform 1.06767;
    }
    bottom2d
    {
        type            empty;
    }
    top2d
    {
        type            empty;
    }
    walls2d
    {
        type            empty;
    }
}


// ************************************************************************* //
