/*--------------------------------*- C++ -*----------------------------------*\
| =========                 |                                                 |
| \\      /  F ield         | OpenFOAM: The Open Source CFD Toolbox           |
|  \\    /   O peration     | Version:  2.4.0                                 |
|   \\  /    A nd           | Web:      www.OpenFOAM.org                      |
|    \\/     M anipulation  |                                                 |
\*---------------------------------------------------------------------------*/
FoamFile
{
    version     2.0;
    format      ascii;
    class       volScalarField;
    location    "0/region2d";
    object      nut;
}
// * * * * * * * * * * * * * * * * * * * * * * * * * * * * * * * * * * * * * //

dimensions      [0 2 -1 0 0 0 0];

internalField   nonuniform List<scalar> 
400
(
0.0100881
0.0100881
0.0100882
0.0100884
0.0100886
0.0100887
0.0100889
0.0100891
0.0100893
0.0100895
0.0100897
0.0100899
0.0100901
0.0100903
0.0100905
0.0100907
0.0100909
0.0100911
0.0100913
0.0100915
0.0100917
0.0100919
0.0100921
0.0100923
0.0100925
0.0100927
0.0100929
0.0100931
0.0100933
0.0100935
0.0100938
0.010094
0.0100942
0.0100944
0.0100946
0.0100948
0.010095
0.0100952
0.0100954
0.0100956
0.0100958
0.010096
0.0100962
0.0100964
0.0100966
0.0100968
0.010097
0.0100972
0.0100974
0.0100976
0.0100978
0.010098
0.0100982
0.0100984
0.0100986
0.0100988
0.010099
0.0100992
0.0100994
0.0100997
0.0100999
0.0101001
0.0101003
0.0101005
0.0101007
0.0101009
0.0101011
0.0101013
0.0101015
0.0101017
0.0101019
0.0101021
0.0101023
0.0101026
0.0101028
0.010103
0.0101032
0.0101034
0.0101036
0.0101038
0.010104
0.0101042
0.0101044
0.0101047
0.0101049
0.0101051
0.0101053
0.0101055
0.0101057
0.0101059
0.0101061
0.0101064
0.0101066
0.0101068
0.010107
0.0101072
0.0101074
0.0101076
0.0101078
0.0101081
0.0101083
0.0101085
0.0101087
0.0101089
0.0101091
0.0101094
0.0101096
0.0101098
0.01011
0.0101102
0.0101104
0.0101107
0.0101109
0.0101111
0.0101113
0.0101115
0.0101118
0.010112
0.0101122
0.0101124
0.0101126
0.0101129
0.0101131
0.0101133
0.0101135
0.0101137
0.010114
0.0101142
0.0101144
0.0101146
0.0101149
0.0101151
0.0101153
0.0101155
0.0101157
0.010116
0.0101162
0.0101164
0.0101166
0.0101169
0.0101171
0.0101173
0.0101175
0.0101178
0.010118
0.0101182
0.0101184
0.0101187
0.0101189
0.0101191
0.0101194
0.0101196
0.0101198
0.01012
0.0101203
0.0101205
0.0101207
0.010121
0.0101212
0.0101214
0.0101216
0.0101219
0.0101221
0.0101223
0.0101226
0.0101228
0.010123
0.0101233
0.0101235
0.0101237
0.010124
0.0101242
0.0101244
0.0101247
0.0101249
0.0101251
0.0101254
0.0101256
0.0101258
0.0101261
0.0101263
0.0101265
0.0101268
0.010127
0.0101273
0.0101275
0.0101277
0.010128
0.0101282
0.0101284
0.0101287
0.0101289
0.0101292
0.0101294
0.0101296
0.0101299
0.0101301
0.0101305
0.0101303
0.0101315
0.0100881
0.0100881
0.0100882
0.0100884
0.0100886
0.0100887
0.0100889
0.0100891
0.0100893
0.0100895
0.0100897
0.0100899
0.0100901
0.0100903
0.0100905
0.0100907
0.0100909
0.0100911
0.0100913
0.0100915
0.0100917
0.0100919
0.0100921
0.0100923
0.0100925
0.0100927
0.0100929
0.0100931
0.0100933
0.0100935
0.0100938
0.010094
0.0100942
0.0100944
0.0100946
0.0100948
0.010095
0.0100952
0.0100954
0.0100956
0.0100958
0.010096
0.0100962
0.0100964
0.0100966
0.0100968
0.010097
0.0100972
0.0100974
0.0100976
0.0100978
0.010098
0.0100982
0.0100984
0.0100986
0.0100988
0.010099
0.0100992
0.0100994
0.0100997
0.0100999
0.0101001
0.0101003
0.0101005
0.0101007
0.0101009
0.0101011
0.0101013
0.0101015
0.0101017
0.0101019
0.0101021
0.0101023
0.0101026
0.0101028
0.010103
0.0101032
0.0101034
0.0101036
0.0101038
0.010104
0.0101042
0.0101044
0.0101047
0.0101049
0.0101051
0.0101053
0.0101055
0.0101057
0.0101059
0.0101061
0.0101064
0.0101066
0.0101068
0.010107
0.0101072
0.0101074
0.0101076
0.0101078
0.0101081
0.0101083
0.0101085
0.0101087
0.0101089
0.0101091
0.0101094
0.0101096
0.0101098
0.01011
0.0101102
0.0101104
0.0101107
0.0101109
0.0101111
0.0101113
0.0101115
0.0101118
0.010112
0.0101122
0.0101124
0.0101126
0.0101129
0.0101131
0.0101133
0.0101135
0.0101137
0.010114
0.0101142
0.0101144
0.0101146
0.0101149
0.0101151
0.0101153
0.0101155
0.0101157
0.010116
0.0101162
0.0101164
0.0101166
0.0101169
0.0101171
0.0101173
0.0101175
0.0101178
0.010118
0.0101182
0.0101184
0.0101187
0.0101189
0.0101191
0.0101194
0.0101196
0.0101198
0.01012
0.0101203
0.0101205
0.0101207
0.010121
0.0101212
0.0101214
0.0101216
0.0101219
0.0101221
0.0101223
0.0101226
0.0101228
0.010123
0.0101233
0.0101235
0.0101237
0.010124
0.0101242
0.0101244
0.0101247
0.0101249
0.0101251
0.0101254
0.0101256
0.0101258
0.0101261
0.0101263
0.0101265
0.0101268
0.010127
0.0101273
0.0101275
0.0101277
0.010128
0.0101282
0.0101284
0.0101287
0.0101289
0.0101292
0.0101294
0.0101296
0.0101299
0.0101301
0.0101305
0.0101303
0.0101315
)
;

boundaryField
{
    front2d
    {
        type            zeroGradient;
    }
    back2d
    {
        type            zeroGradient;
    }
    bottom2d
    {
        type            empty;
    }
    top2d
    {
        type            empty;
    }
    walls2d
    {
        type            empty;
    }
}


// ************************************************************************* //
