/*--------------------------------*- C++ -*----------------------------------*\
| =========                 |                                                 |
| \\      /  F ield         | OpenFOAM: The Open Source CFD Toolbox           |
|  \\    /   O peration     | Version:  2.4.0                                 |
|   \\  /    A nd           | Web:      www.OpenFOAM.org                      |
|    \\/     M anipulation  |                                                 |
\*---------------------------------------------------------------------------*/
FoamFile
{
    version     2.0;
    format      ascii;
    class       volScalarField;
    location    "0/region2d";
    object      S;
}
// * * * * * * * * * * * * * * * * * * * * * * * * * * * * * * * * * * * * * //

dimensions      [0 1 0 0 0 0 0];

internalField   nonuniform List<scalar> 
400
(
-5e-05
-0.00015
-0.00025
-0.00035
-0.00045
-0.00055
-0.00065
-0.00075
-0.00085
-0.00095
-0.00105
-0.00115
-0.00125
-0.00135
-0.00145
-0.00155
-0.00165
-0.00175
-0.00185
-0.00195
-0.00205
-0.00215
-0.00225
-0.00235
-0.00245
-0.00255
-0.00265
-0.00275
-0.00285
-0.00295
-0.00305
-0.00315
-0.00325
-0.00335
-0.00345
-0.00355
-0.00365
-0.00375
-0.00385
-0.00395
-0.00405
-0.00415
-0.00425
-0.00435
-0.00445
-0.00455
-0.00465
-0.00475
-0.00485
-0.00495
-0.00505
-0.00515
-0.00525
-0.00535
-0.00545
-0.00555
-0.00565
-0.00575
-0.00585
-0.00595
-0.00605
-0.00615
-0.00625
-0.00635
-0.00645
-0.00655
-0.00665
-0.00675
-0.00685
-0.00695
-0.00705
-0.00715
-0.00725
-0.00735
-0.00745
-0.00755
-0.00765
-0.00775
-0.00785
-0.00795
-0.00805
-0.00815
-0.00825
-0.00835
-0.00845
-0.00855
-0.00865
-0.00875
-0.00885
-0.00895
-0.00905
-0.00915
-0.00925
-0.00935
-0.00945
-0.00955
-0.00965
-0.00975
-0.00985
-0.00995
-0.01005
-0.01015
-0.01025
-0.01035
-0.01045
-0.01055
-0.01065
-0.01075
-0.01085
-0.01095
-0.01105
-0.01115
-0.01125
-0.01135
-0.01145
-0.01155
-0.01165
-0.01175
-0.01185
-0.01195
-0.01205
-0.01215
-0.01225
-0.01235
-0.01245
-0.01255
-0.01265
-0.01275
-0.01285
-0.01295
-0.01305
-0.01315
-0.01325
-0.01335
-0.01345
-0.01355
-0.01365
-0.01375
-0.01385
-0.01395
-0.01405
-0.01415
-0.01425
-0.01435
-0.01445
-0.01455
-0.01465
-0.01475
-0.01485
-0.01495
-0.01505
-0.01515
-0.01525
-0.01535
-0.01545
-0.01555
-0.01565
-0.01575
-0.01585
-0.01595
-0.01605
-0.01615
-0.01625
-0.01635
-0.01645
-0.01655
-0.01665
-0.01675
-0.01685
-0.01695
-0.01705
-0.01715
-0.01725
-0.01735
-0.01745
-0.01755
-0.01765
-0.01775
-0.01785
-0.01795
-0.01805
-0.01815
-0.01825
-0.01835
-0.01845
-0.01855
-0.01865
-0.01875
-0.01885
-0.01895
-0.01905
-0.01915
-0.01925
-0.01935
-0.01945
-0.01955
-0.01965
-0.01975
-0.01985
-0.01995
-5e-05
-0.00015
-0.00025
-0.00035
-0.00045
-0.00055
-0.00065
-0.00075
-0.00085
-0.00095
-0.00105
-0.00115
-0.00125
-0.00135
-0.00145
-0.00155
-0.00165
-0.00175
-0.00185
-0.00195
-0.00205
-0.00215
-0.00225
-0.00235
-0.00245
-0.00255
-0.00265
-0.00275
-0.00285
-0.00295
-0.00305
-0.00315
-0.00325
-0.00335
-0.00345
-0.00355
-0.00365
-0.00375
-0.00385
-0.00395
-0.00405
-0.00415
-0.00425
-0.00435
-0.00445
-0.00455
-0.00465
-0.00475
-0.00485
-0.00495
-0.00505
-0.00515
-0.00525
-0.00535
-0.00545
-0.00555
-0.00565
-0.00575
-0.00585
-0.00595
-0.00605
-0.00615
-0.00625
-0.00635
-0.00645
-0.00655
-0.00665
-0.00675
-0.00685
-0.00695
-0.00705
-0.00715
-0.00725
-0.00735
-0.00745
-0.00755
-0.00765
-0.00775
-0.00785
-0.00795
-0.00805
-0.00815
-0.00825
-0.00835
-0.00845
-0.00855
-0.00865
-0.00875
-0.00885
-0.00895
-0.00905
-0.00915
-0.00925
-0.00935
-0.00945
-0.00955
-0.00965
-0.00975
-0.00985
-0.00995
-0.01005
-0.01015
-0.01025
-0.01035
-0.01045
-0.01055
-0.01065
-0.01075
-0.01085
-0.01095
-0.01105
-0.01115
-0.01125
-0.01135
-0.01145
-0.01155
-0.01165
-0.01175
-0.01185
-0.01195
-0.01205
-0.01215
-0.01225
-0.01235
-0.01245
-0.01255
-0.01265
-0.01275
-0.01285
-0.01295
-0.01305
-0.01315
-0.01325
-0.01335
-0.01345
-0.01355
-0.01365
-0.01375
-0.01385
-0.01395
-0.01405
-0.01415
-0.01425
-0.01435
-0.01445
-0.01455
-0.01465
-0.01475
-0.01485
-0.01495
-0.01505
-0.01515
-0.01525
-0.01535
-0.01545
-0.01555
-0.01565
-0.01575
-0.01585
-0.01595
-0.01605
-0.01615
-0.01625
-0.01635
-0.01645
-0.01655
-0.01665
-0.01675
-0.01685
-0.01695
-0.01705
-0.01715
-0.01725
-0.01735
-0.01745
-0.01755
-0.01765
-0.01775
-0.01785
-0.01795
-0.01805
-0.01815
-0.01825
-0.01835
-0.01845
-0.01855
-0.01865
-0.01875
-0.01885
-0.01895
-0.01905
-0.01915
-0.01925
-0.01935
-0.01945
-0.01955
-0.01965
-0.01975
-0.01985
-0.01995
)
;

boundaryField
{
    front2d
    {
        type            fixedValue;
        value           uniform 0;
    }
    back2d
    {
        type            fixedValue;
        value           uniform -0.02;
    }
    bottom2d
    {
        type            empty;
    }
    top2d
    {
        type            empty;
    }
    walls2d
    {
        type            empty;
    }
}


// ************************************************************************* //
