/*--------------------------------*- C++ -*----------------------------------*\
| =========                 |                                                 |
| \\      /  F ield         | OpenFOAM: The Open Source CFD Toolbox           |
|  \\    /   O peration     | Version:  2.4.0                                 |
|   \\  /    A nd           | Web:      www.OpenFOAM.org                      |
|    \\/     M anipulation  |                                                 |
\*---------------------------------------------------------------------------*/
FoamFile
{
    version     2.0;
    format      ascii;
    class       volVectorField;
    location    "0/region2d";
    object      U;
}
// * * * * * * * * * * * * * * * * * * * * * * * * * * * * * * * * * * * * * //

dimensions      [0 1 -1 0 0 0 0];

internalField   nonuniform List<vector> 
400
(
(2.26978 0 0)
(2.26993 0 0)
(2.27015 0 0)
(2.27038 0 0)
(2.27063 0 0)
(2.27088 0 0)
(2.27114 0 0)
(2.27139 0 0)
(2.27165 0 0)
(2.2719 0 0)
(2.27216 0 0)
(2.27241 0 0)
(2.27267 0 0)
(2.27292 0 0)
(2.27318 0 0)
(2.27344 0 0)
(2.2737 0 0)
(2.27395 0 0)
(2.27421 0 0)
(2.27447 0 0)
(2.27473 0 0)
(2.27499 0 0)
(2.27524 0 0)
(2.2755 0 0)
(2.27576 0 0)
(2.27602 0 0)
(2.27628 0 0)
(2.27654 0 0)
(2.2768 0 0)
(2.27707 0 0)
(2.27733 0 0)
(2.27759 0 0)
(2.27785 0 0)
(2.27811 0 0)
(2.27837 0 0)
(2.27864 0 0)
(2.2789 0 0)
(2.27916 0 0)
(2.27943 0 0)
(2.27969 0 0)
(2.27996 0 0)
(2.28022 0 0)
(2.28049 0 0)
(2.28075 0 0)
(2.28102 0 0)
(2.28128 0 0)
(2.28155 0 0)
(2.28182 0 0)
(2.28209 0 0)
(2.28235 0 0)
(2.28262 0 0)
(2.28289 0 0)
(2.28316 0 0)
(2.28343 0 0)
(2.2837 0 0)
(2.28397 0 0)
(2.28424 0 0)
(2.28451 0 0)
(2.28478 0 0)
(2.28505 0 0)
(2.28532 0 0)
(2.28559 0 0)
(2.28586 0 0)
(2.28614 0 0)
(2.28641 0 0)
(2.28668 0 0)
(2.28696 0 0)
(2.28723 0 0)
(2.2875 0 0)
(2.28778 0 0)
(2.28805 0 0)
(2.28833 0 0)
(2.28861 0 0)
(2.28888 0 0)
(2.28916 0 0)
(2.28944 0 0)
(2.28971 0 0)
(2.28999 0 0)
(2.29027 0 0)
(2.29055 0 0)
(2.29083 0 0)
(2.29111 0 0)
(2.29139 0 0)
(2.29167 0 0)
(2.29195 0 0)
(2.29223 0 0)
(2.29251 0 0)
(2.29279 0 0)
(2.29308 0 0)
(2.29336 0 0)
(2.29364 0 0)
(2.29393 0 0)
(2.29421 0 0)
(2.29449 0 0)
(2.29478 0 0)
(2.29507 0 0)
(2.29535 0 0)
(2.29564 0 0)
(2.29592 0 0)
(2.29621 0 0)
(2.2965 0 0)
(2.29679 0 0)
(2.29708 0 0)
(2.29736 0 0)
(2.29765 0 0)
(2.29794 0 0)
(2.29823 0 0)
(2.29852 0 0)
(2.29882 0 0)
(2.29911 0 0)
(2.2994 0 0)
(2.29969 0 0)
(2.29998 0 0)
(2.30028 0 0)
(2.30057 0 0)
(2.30086 0 0)
(2.30116 0 0)
(2.30145 0 0)
(2.30175 0 0)
(2.30205 0 0)
(2.30234 0 0)
(2.30264 0 0)
(2.30294 0 0)
(2.30323 0 0)
(2.30353 0 0)
(2.30383 0 0)
(2.30413 0 0)
(2.30443 0 0)
(2.30473 0 0)
(2.30503 0 0)
(2.30533 0 0)
(2.30563 0 0)
(2.30593 0 0)
(2.30624 0 0)
(2.30654 0 0)
(2.30684 0 0)
(2.30714 0 0)
(2.30745 0 0)
(2.30775 0 0)
(2.30806 0 0)
(2.30836 0 0)
(2.30867 0 0)
(2.30898 0 0)
(2.30928 0 0)
(2.30959 0 0)
(2.3099 0 0)
(2.31021 0 0)
(2.31051 0 0)
(2.31082 0 0)
(2.31113 0 0)
(2.31144 0 0)
(2.31175 0 0)
(2.31206 0 0)
(2.31238 0 0)
(2.31269 0 0)
(2.313 0 0)
(2.31331 0 0)
(2.31363 0 0)
(2.31394 0 0)
(2.31426 0 0)
(2.31457 0 0)
(2.31489 0 0)
(2.3152 0 0)
(2.31552 0 0)
(2.31583 0 0)
(2.31615 0 0)
(2.31647 0 0)
(2.31679 0 0)
(2.31711 0 0)
(2.31743 0 0)
(2.31775 0 0)
(2.31807 0 0)
(2.31839 0 0)
(2.31871 0 0)
(2.31903 0 0)
(2.31935 0 0)
(2.31968 0 0)
(2.32 0 0)
(2.32033 0 0)
(2.32065 0 0)
(2.32097 0 0)
(2.3213 0 0)
(2.32163 0 0)
(2.32195 0 0)
(2.32228 0 0)
(2.32261 0 0)
(2.32294 0 0)
(2.32327 0 0)
(2.3236 0 0)
(2.32393 0 0)
(2.32426 0 0)
(2.32459 0 0)
(2.32492 0 0)
(2.32525 0 0)
(2.32558 0 0)
(2.32592 0 0)
(2.32625 0 0)
(2.3266 0 0)
(2.32689 0 0)
(2.32735 0 0)
(2.26978 0 0)
(2.26993 0 0)
(2.27015 0 0)
(2.27038 0 0)
(2.27063 0 0)
(2.27088 0 0)
(2.27114 0 0)
(2.27139 0 0)
(2.27165 0 0)
(2.2719 0 0)
(2.27216 0 0)
(2.27241 0 0)
(2.27267 0 0)
(2.27292 0 0)
(2.27318 0 0)
(2.27344 0 0)
(2.2737 0 0)
(2.27395 0 0)
(2.27421 0 0)
(2.27447 0 0)
(2.27473 0 0)
(2.27499 0 0)
(2.27524 0 0)
(2.2755 0 0)
(2.27576 0 0)
(2.27602 0 0)
(2.27628 0 0)
(2.27654 0 0)
(2.2768 0 0)
(2.27707 0 0)
(2.27733 0 0)
(2.27759 0 0)
(2.27785 0 0)
(2.27811 0 0)
(2.27837 0 0)
(2.27864 0 0)
(2.2789 0 0)
(2.27916 0 0)
(2.27943 0 0)
(2.27969 0 0)
(2.27996 0 0)
(2.28022 0 0)
(2.28049 0 0)
(2.28075 0 0)
(2.28102 0 0)
(2.28128 0 0)
(2.28155 0 0)
(2.28182 0 0)
(2.28209 0 0)
(2.28235 0 0)
(2.28262 0 0)
(2.28289 0 0)
(2.28316 0 0)
(2.28343 0 0)
(2.2837 0 0)
(2.28397 0 0)
(2.28424 0 0)
(2.28451 0 0)
(2.28478 0 0)
(2.28505 0 0)
(2.28532 0 0)
(2.28559 0 0)
(2.28586 0 0)
(2.28614 0 0)
(2.28641 0 0)
(2.28668 0 0)
(2.28696 0 0)
(2.28723 0 0)
(2.2875 0 0)
(2.28778 0 0)
(2.28805 0 0)
(2.28833 0 0)
(2.28861 0 0)
(2.28888 0 0)
(2.28916 0 0)
(2.28944 0 0)
(2.28971 0 0)
(2.28999 0 0)
(2.29027 0 0)
(2.29055 0 0)
(2.29083 0 0)
(2.29111 0 0)
(2.29139 0 0)
(2.29167 0 0)
(2.29195 0 0)
(2.29223 0 0)
(2.29251 0 0)
(2.29279 0 0)
(2.29308 0 0)
(2.29336 0 0)
(2.29364 0 0)
(2.29393 0 0)
(2.29421 0 0)
(2.29449 0 0)
(2.29478 0 0)
(2.29507 0 0)
(2.29535 0 0)
(2.29564 0 0)
(2.29592 0 0)
(2.29621 0 0)
(2.2965 0 0)
(2.29679 0 0)
(2.29708 0 0)
(2.29736 0 0)
(2.29765 0 0)
(2.29794 0 0)
(2.29823 0 0)
(2.29852 0 0)
(2.29882 0 0)
(2.29911 0 0)
(2.2994 0 0)
(2.29969 0 0)
(2.29998 0 0)
(2.30028 0 0)
(2.30057 0 0)
(2.30086 0 0)
(2.30116 0 0)
(2.30145 0 0)
(2.30175 0 0)
(2.30205 0 0)
(2.30234 0 0)
(2.30264 0 0)
(2.30294 0 0)
(2.30323 0 0)
(2.30353 0 0)
(2.30383 0 0)
(2.30413 0 0)
(2.30443 0 0)
(2.30473 0 0)
(2.30503 0 0)
(2.30533 0 0)
(2.30563 0 0)
(2.30593 0 0)
(2.30624 0 0)
(2.30654 0 0)
(2.30684 0 0)
(2.30714 0 0)
(2.30745 0 0)
(2.30775 0 0)
(2.30806 0 0)
(2.30836 0 0)
(2.30867 0 0)
(2.30898 0 0)
(2.30928 0 0)
(2.30959 0 0)
(2.3099 0 0)
(2.31021 0 0)
(2.31051 0 0)
(2.31082 0 0)
(2.31113 0 0)
(2.31144 0 0)
(2.31175 0 0)
(2.31206 0 0)
(2.31238 0 0)
(2.31269 0 0)
(2.313 0 0)
(2.31331 0 0)
(2.31363 0 0)
(2.31394 0 0)
(2.31426 0 0)
(2.31457 0 0)
(2.31489 0 0)
(2.3152 0 0)
(2.31552 0 0)
(2.31583 0 0)
(2.31615 0 0)
(2.31647 0 0)
(2.31679 0 0)
(2.31711 0 0)
(2.31743 0 0)
(2.31775 0 0)
(2.31807 0 0)
(2.31839 0 0)
(2.31871 0 0)
(2.31903 0 0)
(2.31935 0 0)
(2.31968 0 0)
(2.32 0 0)
(2.32033 0 0)
(2.32065 0 0)
(2.32097 0 0)
(2.3213 0 0)
(2.32163 0 0)
(2.32195 0 0)
(2.32228 0 0)
(2.32261 0 0)
(2.32294 0 0)
(2.32327 0 0)
(2.3236 0 0)
(2.32393 0 0)
(2.32426 0 0)
(2.32459 0 0)
(2.32492 0 0)
(2.32525 0 0)
(2.32558 0 0)
(2.32592 0 0)
(2.32625 0 0)
(2.3266 0 0)
(2.32689 0 0)
(2.32735 0 0)
)
;

boundaryField
{
    front2d
    {
        type            calculated;
        value           uniform (2.26985 0 0);
    }
    back2d
    {
        type            calculated;
        value           uniform (2.32796 0 0);
    }
    bottom2d
    {
        type            empty;
    }
    top2d
    {
        type            empty;
    }
    walls2d
    {
        type            empty;
    }
}


// ************************************************************************* //
