/*--------------------------------*- C++ -*----------------------------------*\
| =========                 |                                                 |
| \\      /  F ield         | OpenFOAM: The Open Source CFD Toolbox           |
|  \\    /   O peration     | Version:  2.4.0                                 |
|   \\  /    A nd           | Web:      www.OpenFOAM.org                      |
|    \\/     M anipulation  |                                                 |
\*---------------------------------------------------------------------------*/
FoamFile
{
    version     2.0;
    format      ascii;
    class       volScalarField;
    location    "0/region3d";
    object      k;
}
// * * * * * * * * * * * * * * * * * * * * * * * * * * * * * * * * * * * * * //

dimensions      [0 2 -2 0 0 0 0];

internalField   nonuniform List<scalar> 
390000
(
0.0644426
0.0569302
0.0529311
0.0512067
0.0509447
0.051386
0.0522149
0.0531228
0.0540031
0.0548009
0.0555021
0.0561109
0.056635
0.0570878
0.0574843
0.0578324
0.0581401
0.0584154
0.058662
0.0588841
0.059085
0.0592671
0.0594319
0.0595813
0.0597166
0.0598389
0.0599493
0.060049
0.0601391
0.0602204
0.0602938
0.0603601
0.0604205
0.0604757
0.0605266
0.0605741
0.0606188
0.0606615
0.060703
0.0607439
0.0607848
0.0608262
0.0608685
0.0609121
0.0609574
0.0610046
0.0610538
0.0611051
0.0611585
0.0612139
0.0612713
0.0613304
0.0613911
0.0614531
0.0615161
0.0615798
0.0616438
0.061708
0.0617719
0.0618351
0.0618974
0.0619585
0.062018
0.0620758
0.0621316
0.0621852
0.0622365
0.0622853
0.0623318
0.0623758
0.0624174
0.0624567
0.0624937
0.0625287
0.0625617
0.0625931
0.0626231
0.0626519
0.0626797
0.0627069
0.0627336
0.0627603
0.062787
0.0628142
0.0628419
0.0628704
0.0628999
0.0629305
0.0629624
0.0629956
0.0630303
0.0630664
0.063104
0.063143
0.0631834
0.0632251
0.063268
0.063312
0.0633569
0.0634027
0.063449
0.0634959
0.063543
0.0635902
0.0636374
0.0636843
0.0637309
0.0637769
0.0638223
0.0638669
0.0639107
0.0639536
0.0639954
0.0640363
0.0640761
0.0641149
0.0641527
0.0641895
0.0642254
0.0642605
0.0642949
0.0643286
0.0643618
0.0643946
0.0644271
0.0644594
0.0644916
0.0645239
0.0645563
0.064589
0.0646221
0.0646556
0.0646896
0.0647242
0.0647594
0.0647953
0.0648319
0.0648691
0.0649071
0.0649457
0.064985
0.065025
0.0650655
0.0651064
0.0651479
0.0651897
0.0652318
0.0652741
0.0653165
0.065359
0.0654015
0.0654439
0.065486
0.065528
0.0655696
0.0656109
0.0656518
0.0656923
0.0657324
0.065772
0.0658112
0.0658499
0.0658883
0.0659262
0.0659639
0.0660012
0.0660382
0.066075
0.0661117
0.0661482
0.0661847
0.0662211
0.0662576
0.0662942
0.0663309
0.0663678
0.066405
0.0664423
0.06648
0.0665179
0.0665562
0.0665949
0.0666339
0.0666733
0.0667131
0.0667533
0.0667939
0.0668348
0.0668761
0.0669177
0.0669596
0.0670018
0.0670442
0.0670869
0.0671298
0.0671728
0.067216
0.0672592
0.0673025
0.0673459
0.0673893
0.0674326
0.0674759
0.0675191
0.0675622
0.0676052
0.0676481
0.0676908
0.0677334
0.0677758
0.067818
0.0678601
0.0679021
0.0679439
0.0679856
0.0680271
0.0680686
0.06811
0.0681513
0.0681926
0.0682339
0.068275
0.0683162
0.0683573
0.0683984
0.0684395
0.0684806
0.0685216
0.0685627
0.0686038
0.0686451
0.0686864
0.0687279
0.0687697
0.0688117
0.068854
0.0688968
0.0689399
0.0689835
0.0690276
0.0690722
0.0691173
0.0691628
0.0692089
0.0692553
0.0693021
0.0693493
0.0693967
0.0694443
0.0694921
0.0695399
0.0695878
0.0696355
0.0696832
0.0697308
0.0697781
0.0698253
0.0698723
0.0699191
0.0699657
0.0700122
0.0700587
0.0701051
0.0701515
0.070198
0.0702448
0.0702917
0.0703389
0.0703865
0.0704345
0.070483
0.0705319
0.0705814
0.0706314
0.0706819
0.0707329
0.0707845
0.0708365
0.070889
0.0709419
0.0709952
0.0710488
0.0711027
0.0711569
0.0712113
0.0712659
0.0713207
0.0713756
0.0714306
0.0714858
0.0715411
0.0715966
0.0716521
0.0717079
0.0717637
0.0718197
0.0718759
0.0719323
0.0719888
0.0720456
0.0721025
0.0721597
0.0722171
0.0722746
0.0723324
0.0723903
0.0724483
0.0725065
0.0725647
0.0726231
0.0726815
0.0727399
0.0727984
0.0728568
0.0729152
0.0729735
0.0730317
0.0730899
0.0731479
0.0732058
0.0732635
0.073321
0.0733784
0.0734356
0.0734926
0.0735494
0.0736059
0.0736621
0.073718
0.0737736
0.0738288
0.0738836
0.073938
0.0739919
0.0740454
0.0740985
0.0741513
0.074204
0.0742569
0.0743107
0.0743663
0.0744242
0.0744847
0.0745479
0.074614
0.0746831
0.0747553
0.0748306
0.074909
0.0749903
0.0750743
0.0751607
0.0752493
0.0753397
0.0754315
0.0755244
0.075618
0.0757119
0.0758057
0.0758992
0.075992
0.0760839
0.0761746
0.076264
0.0763519
0.0764382
0.0765229
0.0766061
0.0766876
0.0767678
0.0768465
0.076924
0.0770005
0.077076
0.0771509
0.0772253
0.0772993
0.0773732
0.0774472
0.0775214
0.0775959
0.0776711
0.0777469
0.0778235
0.0779011
0.0779798
0.0780597
0.0781408
0.0782232
0.078307
0.0783922
0.0784789
0.0785669
0.0786563
0.0787471
0.0788394
0.078933
0.079028
0.0791243
0.079222
0.079321
0.0794212
0.0795227
0.0796255
0.0797295
0.0798348
0.0799412
0.0800489
0.0801578
0.080268
0.0803794
0.0804921
0.0806061
0.0807215
0.0808382
0.0809564
0.081076
0.0811972
0.0813198
0.0814441
0.08157
0.0816975
0.0818268
0.0819579
0.0820907
0.0822254
0.082362
0.0825006
0.0826411
0.0827836
0.0829282
0.083075
0.0832238
0.083375
0.0835284
0.0836842
0.0838424
0.0840032
0.0841665
0.0843325
0.0845013
0.084673
0.0848477
0.0850255
0.0852064
0.0853908
0.0855784
0.0857697
0.0859645
0.0861632
0.0863655
0.086572
0.0867822
0.0869968
0.0872154
0.0874385
0.0876656
0.0878975
0.0881334
0.0883743
0.0886194
0.0888696
0.0891238
0.0893834
0.0896471
0.0899162
0.0901895
0.0904684
0.0907514
0.0910402
0.0913331
0.0916321
0.0919352
0.0922447
0.0925583
0.0928787
0.0932032
0.0935351
0.0938713
0.0942154
0.0945639
0.0949211
0.095283
0.0956543
0.0960307
0.0964175
0.0968099
0.0972136
0.0976237
0.0980462
0.0984759
0.0989193
0.099371
0.0998378
0.100314
0.100807
0.101311
0.101834
0.102369
0.102925
0.103496
0.104089
0.104702
0.105337
0.105997
0.106681
0.107394
0.108134
0.108911
0.109714
0.110565
0.111443
0.112381
0.113345
0.114388
0.115453
0.116622
0.117808
0.119129
0.120459
0.12197
0.123472
0.125219
0.126933
0.128979
0.130954
0.133385
0.135688
0.138621
0.141345
0.144945
0.148227
0.152726
0.156779
0.162504
0.167695
0.175144
0.182029
0.192071
0.201629
0.215858
0.229943
0.251283
0.273776
0.307707
0.350536
0.408714
0.508351
0.607176
1.04881
0.0530636
0.0502205
0.0519282
0.0539506
0.055759
0.0572919
0.0585169
0.0595145
0.0603284
0.0610046
0.0615715
0.0620519
0.0624692
0.0628378
0.0631633
0.0634552
0.0637211
0.0639633
0.0641857
0.0643912
0.0645816
0.0647583
0.0649223
0.0650748
0.0652165
0.0653482
0.0654707
0.0655844
0.0656897
0.0657871
0.065877
0.06596
0.0660368
0.0661076
0.066173
0.0662334
0.0662895
0.0663418
0.066391
0.0664375
0.0664818
0.0665244
0.0665659
0.0666067
0.0666473
0.066688
0.0667293
0.0667713
0.0668144
0.0668588
0.0669046
0.0669519
0.0670007
0.0670511
0.067103
0.0671563
0.0672108
0.0672666
0.0673233
0.0673807
0.0674387
0.0674969
0.0675552
0.0676133
0.067671
0.067728
0.0677841
0.0678391
0.0678929
0.0679452
0.067996
0.0680452
0.0680927
0.0681384
0.0681823
0.0682246
0.0682652
0.0683043
0.0683418
0.0683781
0.0684132
0.0684472
0.0684804
0.068513
0.0685451
0.068577
0.0686088
0.0686407
0.0686729
0.0687055
0.0687387
0.0687727
0.0688074
0.0688431
0.0688798
0.0689175
0.0689563
0.0689961
0.069037
0.0690788
0.0691216
0.0691653
0.0692097
0.0692548
0.0693005
0.0693466
0.0693931
0.0694397
0.0694865
0.0695331
0.0695796
0.0696259
0.0696717
0.0697171
0.0697619
0.0698061
0.0698496
0.0698924
0.0699344
0.0699757
0.0700163
0.0700562
0.0700953
0.0701338
0.0701717
0.0702091
0.070246
0.0702825
0.0703188
0.0703548
0.0703906
0.0704265
0.0704623
0.0704983
0.0705345
0.070571
0.0706077
0.0706449
0.0706825
0.0707205
0.070759
0.0707981
0.0708376
0.0708777
0.0709183
0.0709593
0.0710008
0.0710427
0.0710849
0.0711275
0.0711704
0.0712134
0.0712566
0.0712999
0.0713432
0.0713865
0.0714297
0.0714727
0.0715156
0.0715583
0.0716007
0.0716429
0.0716848
0.0717264
0.0717677
0.0718087
0.0718494
0.0718899
0.0719301
0.0719701
0.0720099
0.0720495
0.072089
0.0721283
0.0721676
0.0722069
0.0722462
0.0722855
0.0723248
0.0723643
0.0724039
0.0724437
0.0724837
0.0725239
0.0725644
0.0726052
0.0726462
0.0726876
0.0727293
0.0727713
0.0728136
0.0728562
0.0728991
0.0729423
0.0729857
0.0730295
0.0730735
0.0731177
0.0731621
0.0732067
0.0732514
0.0732963
0.0733413
0.0733864
0.0734315
0.0734767
0.0735219
0.073567
0.0736121
0.0736572
0.0737021
0.073747
0.0737918
0.0738365
0.0738811
0.0739256
0.07397
0.0740143
0.0740585
0.0741026
0.0741465
0.0741904
0.0742342
0.0742779
0.0743214
0.0743649
0.0744082
0.0744514
0.0744945
0.0745375
0.0745804
0.0746233
0.0746661
0.0747089
0.0747518
0.0747948
0.074838
0.0748814
0.0749252
0.0749693
0.0750139
0.075059
0.0751047
0.0751508
0.0751975
0.0752448
0.0752926
0.0753409
0.0753897
0.0754388
0.0754883
0.075538
0.0755879
0.0756378
0.0756879
0.0757379
0.0757877
0.0758375
0.0758871
0.0759366
0.0759858
0.076035
0.076084
0.0761329
0.0761818
0.0762308
0.0762799
0.0763291
0.0763786
0.0764284
0.0764786
0.0765292
0.0765803
0.0766318
0.0766838
0.0767363
0.0767892
0.0768427
0.0768965
0.0769508
0.0770055
0.0770604
0.0771157
0.0771712
0.0772269
0.0772828
0.0773388
0.077395
0.0774513
0.0775076
0.0775641
0.0776207
0.0776774
0.0777342
0.0777911
0.0778482
0.0779056
0.0779631
0.0780208
0.0780788
0.0781371
0.0781956
0.0782543
0.0783133
0.0783726
0.078432
0.0784917
0.0785516
0.0786116
0.0786718
0.078732
0.0787924
0.0788527
0.0789131
0.0789734
0.0790337
0.079094
0.0791541
0.0792141
0.079274
0.0793338
0.0793935
0.0794531
0.0795125
0.0795718
0.0796311
0.0796902
0.0797494
0.0798084
0.0798675
0.0799265
0.0799856
0.0800446
0.0801038
0.080163
0.0802225
0.0802821
0.080342
0.0804021
0.0804631
0.0805255
0.0805898
0.0806566
0.080726
0.0807982
0.0808734
0.0809518
0.0810333
0.0811179
0.0812055
0.0812957
0.0813883
0.0814829
0.0815791
0.0816764
0.0817744
0.0818727
0.0819708
0.0820684
0.0821651
0.0822604
0.0823543
0.0824463
0.0825364
0.0826244
0.0827101
0.0827937
0.082875
0.0829543
0.0830316
0.0831071
0.0831809
0.0832534
0.0833248
0.0833952
0.083465
0.0835344
0.0836037
0.083673
0.0837426
0.0838127
0.0838835
0.0839551
0.0840277
0.0841014
0.0841764
0.0842528
0.0843307
0.0844102
0.0844914
0.0845744
0.084659
0.0847455
0.0848337
0.0849237
0.0850154
0.0851088
0.0852038
0.0853005
0.0853986
0.0854983
0.0855994
0.0857019
0.0858058
0.0859109
0.0860173
0.0861249
0.0862337
0.0863436
0.0864547
0.086567
0.0866804
0.086795
0.0869108
0.0870278
0.087146
0.0872655
0.0873864
0.0875086
0.0876323
0.0877575
0.0878842
0.0880125
0.0881425
0.0882742
0.0884077
0.088543
0.0886802
0.0888194
0.0889605
0.0891037
0.089249
0.0893964
0.089546
0.0896979
0.0898521
0.0900087
0.0901677
0.0903293
0.0904934
0.0906603
0.0908299
0.0910023
0.0911777
0.091356
0.0915376
0.0917223
0.0919104
0.0921018
0.0922968
0.0924952
0.0926974
0.0929033
0.093113
0.0933266
0.0935442
0.0937657
0.0939915
0.0942212
0.0944553
0.0946933
0.094936
0.0951825
0.0954338
0.0956891
0.095949
0.0962131
0.0964819
0.0967548
0.0970325
0.0973143
0.097601
0.0978918
0.0981877
0.0984877
0.098793
0.0991024
0.0994173
0.0997365
0.100062
0.100391
0.100727
0.101067
0.101414
0.101765
0.102124
0.102489
0.102861
0.103238
0.103625
0.104017
0.104419
0.104829
0.105248
0.105675
0.106114
0.106562
0.107022
0.107492
0.107976
0.108472
0.108983
0.109508
0.110049
0.110607
0.111182
0.111777
0.112391
0.113028
0.113686
0.114372
0.115081
0.115823
0.11659
0.117398
0.118233
0.119118
0.120033
0.121009
0.122019
0.123103
0.124228
0.12544
0.126705
0.128072
0.12951
0.131063
0.13272
0.134499
0.136437
0.138491
0.140798
0.143192
0.145991
0.14881
0.152274
0.155634
0.160038
0.164084
0.169865
0.174798
0.182694
0.188812
0.200053
0.20795
0.224131
0.234486
0.250558
0.244266
0.223345
0.0547689
0.0482198
0.0468298
0.0475923
0.0490982
0.0506911
0.0521363
0.0533814
0.0544206
0.0552881
0.0560157
0.0566323
0.0571608
0.0576198
0.0580173
0.0583697
0.0586853
0.058967
0.0592225
0.0594554
0.0596686
0.0598645
0.0600453
0.0602125
0.0603676
0.060512
0.0606468
0.0607725
0.0608895
0.0609986
0.0611001
0.0611949
0.0612834
0.0613658
0.0614425
0.0615138
0.0615802
0.0616424
0.0617005
0.0617552
0.0618064
0.0618548
0.0619009
0.061945
0.0619876
0.0620289
0.0620693
0.062109
0.0621485
0.0621879
0.0622276
0.0622677
0.0623084
0.0623497
0.0623918
0.0624348
0.0624786
0.0625233
0.0625689
0.0626151
0.0626621
0.0627097
0.0627577
0.0628061
0.0628547
0.0629033
0.0629518
0.063
0.0630478
0.0630951
0.0631416
0.0631874
0.0632322
0.063276
0.0633188
0.0633604
0.063401
0.0634403
0.0634785
0.0635156
0.0635516
0.0635867
0.0636208
0.0636541
0.0636867
0.0637187
0.0637502
0.0637813
0.0638122
0.063843
0.0638738
0.0639048
0.063936
0.0639675
0.0639995
0.0640319
0.064065
0.0640986
0.0641329
0.0641679
0.0642035
0.0642399
0.0642768
0.0643144
0.0643526
0.0643913
0.0644304
0.06447
0.0645098
0.0645499
0.0645901
0.0646304
0.0646707
0.0647109
0.0647509
0.0647907
0.0648302
0.0648693
0.0649081
0.0649464
0.0649842
0.0650216
0.0650584
0.0650948
0.0651306
0.065166
0.065201
0.0652355
0.0652697
0.0653035
0.0653371
0.0653704
0.0654036
0.0654366
0.0654696
0.0655026
0.0655356
0.0655687
0.065602
0.0656355
0.0656692
0.0657032
0.0657375
0.0657721
0.065807
0.0658422
0.0658778
0.0659137
0.06595
0.0659865
0.0660233
0.0660603
0.0660976
0.066135
0.0661726
0.0662103
0.066248
0.0662858
0.0663236
0.0663613
0.066399
0.0664365
0.0664739
0.0665112
0.0665484
0.0665853
0.0666221
0.0666587
0.0666951
0.0667314
0.0667675
0.0668034
0.0668392
0.0668749
0.0669104
0.0669458
0.0669812
0.0670165
0.0670518
0.0670871
0.0671224
0.0671578
0.0671932
0.0672288
0.0672644
0.0673002
0.0673362
0.0673724
0.0674087
0.0674453
0.067482
0.067519
0.0675563
0.0675937
0.0676314
0.0676693
0.0677074
0.0677458
0.0677843
0.0678231
0.067862
0.0679011
0.0679404
0.0679798
0.0680193
0.0680589
0.0680986
0.0681384
0.0681783
0.0682181
0.068258
0.0682979
0.0683378
0.0683776
0.0684174
0.0684572
0.068497
0.0685366
0.0685763
0.0686158
0.0686553
0.0686947
0.068734
0.0687732
0.0688123
0.0688513
0.0688902
0.0689289
0.0689674
0.0690058
0.0690441
0.0690821
0.06912
0.0691578
0.0691955
0.0692331
0.0692707
0.0693084
0.0693462
0.0693842
0.0694225
0.0694611
0.0695001
0.0695395
0.0695795
0.0696199
0.0696609
0.0697024
0.0697445
0.069787
0.06983
0.0698733
0.069917
0.0699609
0.0700049
0.0700491
0.0700933
0.0701375
0.0701816
0.0702256
0.0702695
0.0703133
0.0703569
0.0704005
0.070444
0.0704874
0.070531
0.0705746
0.0706183
0.0706622
0.0707064
0.0707509
0.0707958
0.070841
0.0708865
0.0709325
0.0709788
0.0710255
0.0710725
0.0711199
0.0711676
0.0712155
0.0712636
0.071312
0.0713605
0.0714091
0.0714579
0.0715067
0.0715556
0.0716046
0.0716536
0.0717027
0.0717519
0.0718012
0.0718505
0.0719001
0.0719497
0.0719996
0.0720496
0.0720999
0.0721504
0.0722011
0.0722521
0.0723032
0.0723547
0.0724063
0.0724582
0.0725102
0.0725623
0.0726146
0.072667
0.0727195
0.072772
0.0728245
0.0728771
0.0729296
0.072982
0.0730344
0.0730867
0.0731389
0.0731911
0.0732432
0.0732953
0.0733474
0.0733995
0.0734518
0.0735041
0.0735566
0.0736094
0.0736625
0.073716
0.07377
0.0738244
0.0738794
0.0739352
0.0739918
0.0740493
0.0741076
0.0741668
0.0742268
0.074288
0.0743508
0.0744155
0.0744823
0.0745513
0.0746227
0.0746966
0.0747731
0.0748521
0.0749335
0.0750169
0.0751022
0.075189
0.0752768
0.0753652
0.0754537
0.075542
0.0756296
0.0757162
0.0758013
0.0758848
0.0759663
0.0760457
0.0761227
0.0761974
0.0762695
0.0763392
0.0764065
0.0764715
0.0765343
0.0765952
0.0766544
0.0767121
0.0767685
0.076824
0.0768789
0.0769333
0.0769875
0.0770419
0.0770965
0.0771517
0.0772076
0.0772643
0.077322
0.0773809
0.0774411
0.0775027
0.0775658
0.0776305
0.077697
0.0777653
0.0778354
0.0779074
0.0779812
0.0780569
0.0781344
0.0782136
0.0782945
0.0783771
0.0784613
0.0785469
0.078634
0.0787224
0.0788121
0.0789031
0.0789952
0.0790884
0.0791827
0.079278
0.0793743
0.0794716
0.0795699
0.0796691
0.0797692
0.0798703
0.0799724
0.0800755
0.0801796
0.0802849
0.0803913
0.0804988
0.0806077
0.0807178
0.0808293
0.0809422
0.0810565
0.0811725
0.08129
0.0814091
0.08153
0.0816527
0.0817771
0.0819034
0.0820317
0.0821619
0.0822942
0.0824286
0.0825651
0.0827038
0.0828448
0.0829882
0.0831339
0.0832821
0.0834328
0.0835861
0.0837421
0.0839009
0.0840624
0.0842268
0.0843942
0.0845645
0.0847379
0.0849144
0.085094
0.0852768
0.0854629
0.0856522
0.0858448
0.0860408
0.0862401
0.0864429
0.086649
0.0868586
0.0870716
0.087288
0.0875079
0.0877313
0.0879581
0.0881884
0.0884222
0.0886594
0.0889001
0.0891443
0.089392
0.0896432
0.0898978
0.0901561
0.090418
0.0906835
0.0909527
0.0912257
0.0915025
0.0917834
0.0920681
0.0923572
0.0926504
0.0929481
0.0932503
0.0935573
0.0938692
0.0941863
0.0945087
0.0948369
0.0951708
0.095511
0.0958577
0.0962112
0.0965719
0.0969402
0.0973165
0.0977011
0.0980948
0.0984975
0.0989105
0.0993335
0.0997682
0.100214
0.100673
0.101144
0.101631
0.10213
0.102649
0.10318
0.103736
0.104304
0.104902
0.105512
0.106161
0.106818
0.107527
0.108239
0.10902
0.109794
0.110663
0.111509
0.112487
0.113414
0.114527
0.115546
0.116831
0.117953
0.119458
0.120696
0.122484
0.123849
0.12601
0.127498
0.13017
0.131755
0.135121
0.136764
0.141017
0.142733
0.147755
0.149975
0.155421
0.157891
0.158128
0.153404
0.143759
0.057637
0.050544
0.0472536
0.0462566
0.0465311
0.047407
0.0485097
0.0496385
0.0506931
0.0516355
0.0524648
0.0531914
0.0538236
0.0543759
0.0548602
0.0552884
0.0556693
0.0560076
0.0563128
0.0565888
0.0568394
0.0570679
0.0572773
0.05747
0.057648
0.0578133
0.0579672
0.0581105
0.0582439
0.0583685
0.0584849
0.0585941
0.0586964
0.058792
0.0588813
0.0589649
0.0590431
0.0591166
0.0591854
0.05925
0.0593105
0.0593674
0.0594211
0.0594721
0.0595205
0.0595667
0.0596109
0.0596535
0.0596948
0.0597352
0.0597749
0.059814
0.0598528
0.0598915
0.0599303
0.0599692
0.0600085
0.0600482
0.0600883
0.0601289
0.06017
0.0602117
0.0602538
0.0602963
0.0603393
0.0603824
0.0604258
0.0604693
0.0605128
0.0605562
0.0605994
0.0606422
0.0606847
0.0607266
0.0607679
0.0608085
0.0608485
0.0608876
0.0609259
0.0609634
0.061
0.0610358
0.0610707
0.0611049
0.0611383
0.061171
0.0612031
0.0612347
0.0612657
0.0612964
0.0613268
0.061357
0.0613871
0.0614172
0.0614473
0.0614775
0.061508
0.0615387
0.0615698
0.0616013
0.0616332
0.0616655
0.0616983
0.0617315
0.0617653
0.0617994
0.0618341
0.0618691
0.0619044
0.0619402
0.0619761
0.0620123
0.0620487
0.0620852
0.0621217
0.0621582
0.0621946
0.0622309
0.062267
0.062303
0.0623386
0.062374
0.0624091
0.0624438
0.0624781
0.0625121
0.0625457
0.0625789
0.0626118
0.0626444
0.0626766
0.0627086
0.0627403
0.0627718
0.0628031
0.0628342
0.0628653
0.0628963
0.0629273
0.0629583
0.0629894
0.0630206
0.0630519
0.0630833
0.063115
0.0631468
0.0631789
0.0632112
0.0632437
0.0632765
0.0633095
0.0633427
0.0633762
0.0634098
0.0634436
0.0634775
0.0635116
0.0635458
0.06358
0.0636143
0.0636486
0.0636829
0.0637172
0.0637514
0.0637856
0.0638197
0.0638536
0.0638875
0.0639213
0.063955
0.0639885
0.0640219
0.0640553
0.0640884
0.0641215
0.0641545
0.0641874
0.0642202
0.064253
0.0642856
0.0643183
0.0643509
0.0643836
0.0644162
0.0644489
0.0644817
0.0645146
0.0645475
0.0645806
0.0646138
0.0646471
0.0646806
0.0647143
0.0647481
0.0647821
0.0648163
0.0648507
0.0648852
0.06492
0.0649549
0.06499
0.0650253
0.0650607
0.0650964
0.0651321
0.065168
0.0652041
0.0652402
0.0652765
0.0653128
0.0653492
0.0653857
0.0654223
0.0654588
0.0654954
0.065532
0.0655686
0.0656052
0.0656418
0.0656783
0.0657148
0.0657513
0.0657877
0.065824
0.0658603
0.0658964
0.0659324
0.0659683
0.066004
0.0660395
0.0660748
0.0661099
0.0661448
0.0661795
0.0662139
0.0662482
0.0662823
0.0663164
0.0663504
0.0663845
0.0664188
0.0664532
0.0664879
0.0665229
0.0665584
0.0665943
0.0666307
0.0666677
0.0667052
0.0667433
0.0667819
0.0668209
0.0668603
0.0669001
0.0669402
0.0669804
0.0670208
0.0670613
0.0671018
0.0671422
0.0671826
0.0672229
0.067263
0.0673031
0.0673431
0.067383
0.0674229
0.0674629
0.067503
0.0675431
0.0675835
0.0676241
0.0676649
0.067706
0.0677474
0.0677891
0.0678312
0.0678735
0.0679161
0.067959
0.0680022
0.0680455
0.0680891
0.0681328
0.0681767
0.0682206
0.0682646
0.0683087
0.0683529
0.068397
0.0684413
0.0684855
0.0685298
0.0685742
0.0686186
0.0686632
0.0687079
0.0687527
0.0687977
0.0688429
0.0688883
0.0689338
0.0689796
0.0690257
0.0690719
0.0691183
0.0691649
0.0692117
0.0692586
0.0693057
0.0693528
0.0694
0.0694472
0.0694945
0.0695417
0.0695889
0.0696361
0.0696833
0.0697304
0.0697775
0.0698245
0.0698716
0.0699187
0.0699659
0.0700132
0.0700608
0.0701086
0.0701569
0.0702056
0.070255
0.070305
0.0703559
0.0704078
0.0704606
0.0705147
0.0705701
0.0706271
0.0706856
0.0707454
0.0708064
0.0708686
0.0709323
0.0709976
0.0710646
0.0711334
0.0712042
0.0712771
0.0713521
0.0714292
0.0715083
0.0715891
0.0716713
0.0717546
0.0718385
0.0719225
0.0720063
0.0720893
0.0721712
0.0722516
0.0723301
0.0724066
0.0724806
0.0725521
0.0726208
0.0726868
0.07275
0.0728104
0.0728681
0.0729232
0.0729759
0.0730265
0.0730752
0.0731222
0.0731679
0.0732125
0.0732563
0.0732996
0.0733428
0.073386
0.0734296
0.0734736
0.0735184
0.0735641
0.0736109
0.0736588
0.0737081
0.0737588
0.0738111
0.0738651
0.0739209
0.0739786
0.0740383
0.0740999
0.0741636
0.0742292
0.0742968
0.0743662
0.0744375
0.0745105
0.0745852
0.0746614
0.0747392
0.0748184
0.0748989
0.0749806
0.0750636
0.0751476
0.0752327
0.0753187
0.0754058
0.0754937
0.0755824
0.075672
0.0757625
0.0758537
0.0759458
0.0760388
0.0761326
0.0762273
0.076323
0.0764197
0.0765174
0.0766163
0.0767163
0.0768175
0.07692
0.0770239
0.0771292
0.0772359
0.0773442
0.0774541
0.0775657
0.0776789
0.0777939
0.0779108
0.0780295
0.0781502
0.0782729
0.0783977
0.0785245
0.0786535
0.0787847
0.0789183
0.0790541
0.0791924
0.0793331
0.0794762
0.0796219
0.0797703
0.0799212
0.0800748
0.080231
0.0803901
0.0805518
0.0807164
0.0808837
0.0810539
0.0812269
0.0814027
0.0815814
0.081763
0.0819473
0.0821346
0.0823247
0.0825177
0.0827135
0.0829123
0.0831137
0.0833181
0.0835252
0.0837353
0.0839479
0.0841636
0.0843818
0.0846031
0.0848269
0.0850537
0.085283
0.0855156
0.0857505
0.0859888
0.0862295
0.0864737
0.0867204
0.0869707
0.0872235
0.0874802
0.0877396
0.088003
0.0882693
0.0885399
0.0888136
0.0890919
0.0893736
0.0896602
0.0899508
0.0902464
0.0905465
0.090852
0.0911626
0.0914788
0.091801
0.0921289
0.0924639
0.0928046
0.0931538
0.0935085
0.0938735
0.0942436
0.0946265
0.0950135
0.0954168
0.0958222
0.096249
0.096675
0.0971291
0.0975779
0.0980642
0.098538
0.0990624
0.0995638
0.100134
0.100665
0.101291
0.101855
0.102548
0.103146
0.103922
0.104556
0.105434
0.106104
0.107105
0.107811
0.108963
0.109698
0.111038
0.111782
0.113364
0.114069
0.115948
0.116548
0.118714
0.119201
0.12137
0.121987
0.123802
0.124342
0.123644
0.120695
0.121129
0.0596101
0.0531507
0.0491898
0.0471184
0.0463321
0.0463576
0.0468571
0.0475994
0.0484332
0.049269
0.0500627
0.0507963
0.0514614
0.0520583
0.0525951
0.0530753
0.0535059
0.0538925
0.0542419
0.0545581
0.0548452
0.0551067
0.0553463
0.0555663
0.0557692
0.0559575
0.0561324
0.0562948
0.0564461
0.0565873
0.0567196
0.0568439
0.0569603
0.0570694
0.0571717
0.0572676
0.0573578
0.0574427
0.0575225
0.0575974
0.0576675
0.0577337
0.0577961
0.0578551
0.0579108
0.0579636
0.0580137
0.0580614
0.0581072
0.0581513
0.0581939
0.0582352
0.0582755
0.0583149
0.0583538
0.0583924
0.0584307
0.0584688
0.058507
0.0585453
0.0585838
0.0586225
0.0586616
0.0587009
0.0587406
0.0587805
0.0588206
0.058861
0.0589016
0.0589422
0.0589829
0.0590235
0.0590639
0.0591042
0.0591441
0.0591837
0.0592228
0.0592614
0.0592994
0.0593369
0.0593737
0.0594098
0.0594452
0.0594799
0.059514
0.0595474
0.0595801
0.0596122
0.0596438
0.0596749
0.0597055
0.0597357
0.0597657
0.0597954
0.0598249
0.0598543
0.0598836
0.059913
0.0599425
0.0599722
0.060002
0.0600321
0.0600625
0.0600931
0.0601241
0.0601554
0.0601871
0.0602191
0.0602515
0.0602841
0.0603171
0.0603503
0.0603837
0.0604173
0.0604511
0.0604849
0.0605189
0.0605528
0.0605867
0.0606206
0.0606543
0.0606879
0.0607212
0.0607544
0.0607873
0.0608199
0.0608523
0.0608844
0.0609162
0.0609476
0.0609788
0.0610097
0.0610403
0.0610707
0.0611009
0.0611308
0.0611606
0.0611902
0.0612197
0.0612491
0.0612785
0.0613079
0.0613372
0.0613667
0.0613961
0.0614257
0.0614554
0.0614853
0.0615153
0.0615454
0.0615758
0.0616063
0.061637
0.0616678
0.0616988
0.06173
0.0617613
0.0617927
0.0618242
0.0618558
0.0618875
0.0619192
0.0619509
0.0619827
0.0620144
0.0620462
0.0620779
0.0621095
0.0621411
0.0621726
0.0622041
0.0622354
0.0622667
0.0622979
0.062329
0.06236
0.062391
0.0624218
0.0624526
0.0624833
0.062514
0.0625445
0.0625751
0.0626057
0.0626362
0.0626668
0.0626974
0.062728
0.0627587
0.0627895
0.0628203
0.0628513
0.0628824
0.0629136
0.0629449
0.0629764
0.063008
0.0630398
0.0630717
0.0631038
0.063136
0.0631684
0.063201
0.0632337
0.0632666
0.0632996
0.0633328
0.0633662
0.0633996
0.0634332
0.0634669
0.0635007
0.0635346
0.0635685
0.0636025
0.0636366
0.0636707
0.0637048
0.063739
0.0637732
0.0638073
0.0638414
0.0638755
0.0639096
0.0639436
0.0639775
0.0640113
0.064045
0.0640785
0.0641119
0.064145
0.0641779
0.0642105
0.0642429
0.0642749
0.0643068
0.0643384
0.0643698
0.0644011
0.0644323
0.0644636
0.0644949
0.0645264
0.0645582
0.0645903
0.0646228
0.0646558
0.0646893
0.0647233
0.0647579
0.064793
0.0648287
0.0648648
0.0649014
0.0649383
0.0649755
0.065013
0.0650505
0.0650882
0.0651258
0.0651635
0.0652011
0.0652386
0.065276
0.0653133
0.0653505
0.0653878
0.065425
0.0654623
0.0654996
0.0655371
0.0655747
0.0656125
0.0656506
0.0656889
0.0657274
0.0657662
0.0658053
0.0658446
0.0658842
0.0659239
0.0659639
0.066004
0.0660442
0.0660846
0.066125
0.0661655
0.0662061
0.0662466
0.0662872
0.0663278
0.0663685
0.0664091
0.0664498
0.0664905
0.0665314
0.0665723
0.0666133
0.0666545
0.0666958
0.0667373
0.066779
0.0668209
0.066863
0.0669052
0.0669476
0.0669902
0.067033
0.0670758
0.0671188
0.0671618
0.0672049
0.067248
0.0672911
0.0673343
0.0673774
0.0674205
0.0674635
0.0675065
0.0675496
0.0675926
0.0676357
0.0676788
0.0677222
0.0677658
0.0678097
0.0678541
0.067899
0.0679446
0.0679911
0.0680386
0.0680872
0.0681372
0.0681886
0.0682417
0.0682966
0.0683536
0.0684127
0.0684738
0.0685365
0.0686006
0.0686663
0.0687334
0.0688021
0.0688723
0.0689442
0.0690179
0.0690934
0.0691707
0.0692497
0.0693301
0.0694116
0.0694938
0.0695763
0.0696585
0.06974
0.0698204
0.0698992
0.069976
0.0700505
0.0701224
0.0701914
0.0702574
0.0703202
0.0703799
0.0704363
0.0704896
0.0705398
0.0705871
0.0706317
0.0706739
0.070714
0.0707522
0.0707888
0.0708243
0.0708588
0.0708928
0.0709265
0.0709603
0.0709944
0.071029
0.0710644
0.0711007
0.0711381
0.0711768
0.0712169
0.0712584
0.0713016
0.0713466
0.0713934
0.0714423
0.0714933
0.0715464
0.0716016
0.071659
0.0717186
0.0717801
0.0718437
0.0719091
0.0719763
0.0720453
0.0721158
0.0721879
0.0722614
0.0723362
0.0724122
0.0724894
0.0725677
0.072647
0.0727272
0.0728084
0.0728903
0.072973
0.0730566
0.0731408
0.0732259
0.0733117
0.0733982
0.0734856
0.0735737
0.0736628
0.0737528
0.0738437
0.0739356
0.0740287
0.0741228
0.0742182
0.0743149
0.0744129
0.0745124
0.0746133
0.0747158
0.0748198
0.0749256
0.0750331
0.0751424
0.0752535
0.0753666
0.0754816
0.0755987
0.0757178
0.0758391
0.0759626
0.0760883
0.0762163
0.0763466
0.0764793
0.0766144
0.0767519
0.0768918
0.0770342
0.0771791
0.0773265
0.0774764
0.0776288
0.0777837
0.0779412
0.0781011
0.0782635
0.0784284
0.0785959
0.0787656
0.078938
0.0791127
0.0792899
0.0794694
0.0796515
0.0798358
0.0800226
0.0802115
0.0804031
0.0805966
0.0807928
0.0809909
0.0811916
0.0813942
0.0815995
0.0818065
0.0820163
0.0822278
0.0824421
0.0826581
0.082877
0.0830976
0.0833212
0.0835465
0.0837749
0.084005
0.0842384
0.0844737
0.0847123
0.0849529
0.0851969
0.0854432
0.0856932
0.0859456
0.0862017
0.0864607
0.0867235
0.0869896
0.0872594
0.0875332
0.0878105
0.0880926
0.088378
0.0886692
0.088963
0.0892642
0.089567
0.0898795
0.0901917
0.0905169
0.0908392
0.0911789
0.091512
0.0918686
0.0922132
0.0925896
0.0929462
0.0933462
0.0937151
0.0941431
0.0945244
0.0949863
0.0953794
0.095882
0.0962858
0.0968367
0.097249
0.0978567
0.0982745
0.0989472
0.0993666
0.10011
0.100525
0.101344
0.101739
0.102638
0.102977
0.103955
0.104174
0.105173
0.105257
0.106078
0.106219
0.106713
0.106654
0.106272
0.104425
0.10701
0.0607345
0.0551637
0.0512246
0.0486714
0.0472025
0.046534
0.0464283
0.0466919
0.0471758
0.0477731
0.0484141
0.0490569
0.0496762
0.0502573
0.0507974
0.0512937
0.0517475
0.0521628
0.0525417
0.0528873
0.0532038
0.0534932
0.0537595
0.0540046
0.0542312
0.0544416
0.0546368
0.0548182
0.0549874
0.0551457
0.055294
0.0554335
0.0555641
0.0556867
0.0558019
0.0559103
0.0560126
0.0561089
0.0561996
0.0562849
0.0563651
0.0564408
0.0565124
0.0565799
0.0566437
0.0567039
0.0567609
0.0568151
0.0568667
0.056916
0.0569632
0.0570086
0.0570522
0.0570945
0.0571358
0.0571761
0.0572156
0.0572546
0.057293
0.0573312
0.0573692
0.0574071
0.0574451
0.0574832
0.0575213
0.0575596
0.0575981
0.0576367
0.0576755
0.0577144
0.0577534
0.0577924
0.0578314
0.0578704
0.0579092
0.0579478
0.0579862
0.0580242
0.0580619
0.0580991
0.0581358
0.058172
0.0582077
0.0582428
0.0582773
0.0583112
0.0583444
0.0583771
0.0584092
0.0584408
0.0584719
0.0585025
0.0585326
0.0585624
0.0585919
0.0586211
0.0586501
0.0586789
0.0587077
0.0587365
0.0587652
0.058794
0.058823
0.058852
0.0588813
0.0589108
0.0589405
0.0589704
0.0590006
0.0590311
0.0590618
0.0590927
0.0591239
0.0591552
0.0591868
0.0592185
0.0592503
0.0592822
0.0593141
0.0593461
0.059378
0.0594099
0.0594417
0.0594733
0.0595048
0.0595362
0.0595673
0.0595982
0.0596288
0.0596593
0.0596894
0.0597193
0.0597489
0.0597783
0.0598075
0.0598364
0.0598651
0.0598936
0.059922
0.0599502
0.0599783
0.0600063
0.0600342
0.0600621
0.06009
0.0601179
0.0601458
0.0601738
0.0602019
0.0602301
0.0602583
0.0602867
0.0603152
0.0603439
0.0603727
0.0604016
0.0604306
0.0604598
0.060489
0.0605184
0.0605478
0.0605773
0.0606068
0.0606364
0.060666
0.0606957
0.0607253
0.0607549
0.0607845
0.0608141
0.0608437
0.0608731
0.0609026
0.060932
0.0609613
0.0609905
0.0610197
0.0610488
0.0610779
0.0611068
0.0611358
0.0611646
0.0611934
0.0612222
0.0612509
0.0612796
0.0613083
0.0613371
0.0613658
0.0613946
0.0614234
0.0614523
0.0614813
0.0615104
0.0615395
0.0615688
0.0615981
0.0616276
0.0616572
0.061687
0.0617168
0.0617469
0.061777
0.0618073
0.0618378
0.0618684
0.0618992
0.0619301
0.0619612
0.0619923
0.0620237
0.0620551
0.0620867
0.0621183
0.0621501
0.0621819
0.0622138