/*--------------------------------*- C++ -*----------------------------------*\
| =========                 |                                                 |
| \\      /  F ield         | OpenFOAM: The Open Source CFD Toolbox           |
|  \\    /   O peration     | Version:  2.4.0                                 |
|   \\  /    A nd           | Web:      www.OpenFOAM.org                      |
|    \\/     M anipulation  |                                                 |
\*---------------------------------------------------------------------------*/
FoamFile
{
    version     2.0;
    format      ascii;
    class       volScalarField;
    location    "0/region3d";
    object      nut;
}
// * * * * * * * * * * * * * * * * * * * * * * * * * * * * * * * * * * * * * //

dimensions      [0 2 -1 0 0 0 0];

internalField   nonuniform List<scalar> 
390000
(
0.00019616
0.000179666
0.000170452
0.000166604
0.000166093
0.000167256
0.000169285
0.000171511
0.000173609
0.000175479
0.000177093
0.000178467
0.000179629
0.000180611
0.00018145
0.000182174
0.000182802
0.000183353
0.00018384
0.000184274
0.000184662
0.000185012
0.000185327
0.000185612
0.000185871
0.000186105
0.000186318
0.000186511
0.000186687
0.000186847
0.000186993
0.000187127
0.000187249
0.000187361
0.000187464
0.00018756
0.00018765
0.000187735
0.000187815
0.000187893
0.000187968
0.000188042
0.000188115
0.000188188
0.000188261
0.000188335
0.000188411
0.000188488
0.000188567
0.000188648
0.00018873
0.000188815
0.000188901
0.000188988
0.000189077
0.000189166
0.000189257
0.000189347
0.000189438
0.000189528
0.000189617
0.000189705
0.000189792
0.000189877
0.00018996
0.00019004
0.000190118
0.000190193
0.000190265
0.000190335
0.000190401
0.000190465
0.000190526
0.000190584
0.00019064
0.000190693
0.000190744
0.000190794
0.000190841
0.000190888
0.000190934
0.000190978
0.000191023
0.000191067
0.000191112
0.000191157
0.000191203
0.00019125
0.000191298
0.000191348
0.000191398
0.000191451
0.000191505
0.00019156
0.000191617
0.000191676
0.000191736
0.000191798
0.000191861
0.000191925
0.00019199
0.000192055
0.000192122
0.000192188
0.000192255
0.000192322
0.000192388
0.000192455
0.00019252
0.000192585
0.00019265
0.000192713
0.000192775
0.000192836
0.000192896
0.000192955
0.000193013
0.000193069
0.000193124
0.000193179
0.000193232
0.000193284
0.000193336
0.000193387
0.000193437
0.000193487
0.000193536
0.000193586
0.000193635
0.000193684
0.000193734
0.000193784
0.000193835
0.000193885
0.000193937
0.000193989
0.000194042
0.000194096
0.00019415
0.000194205
0.000194261
0.000194318
0.000194375
0.000194433
0.000194492
0.000194551
0.00019461
0.00019467
0.00019473
0.00019479
0.000194851
0.000194911
0.000194971
0.000195031
0.000195091
0.00019515
0.000195209
0.000195268
0.000195326
0.000195384
0.000195441
0.000195498
0.000195554
0.00019561
0.000195666
0.000195721
0.000195775
0.00019583
0.000195884
0.000195938
0.000195992
0.000196045
0.000196099
0.000196152
0.000196206
0.000196259
0.000196313
0.000196367
0.000196422
0.000196476
0.000196531
0.000196586
0.000196642
0.000196698
0.000196755
0.000196812
0.000196869
0.000196927
0.000196985
0.000197044
0.000197103
0.000197162
0.000197222
0.000197282
0.000197342
0.000197403
0.000197464
0.000197525
0.000197586
0.000197647
0.000197709
0.00019777
0.000197831
0.000197893
0.000197954
0.000198015
0.000198076
0.000198137
0.000198197
0.000198258
0.000198318
0.000198378
0.000198438
0.000198498
0.000198558
0.000198617
0.000198677
0.000198736
0.000198795
0.000198854
0.000198913
0.000198971
0.00019903
0.000199088
0.000199147
0.000199205
0.000199263
0.000199321
0.000199379
0.000199437
0.000199495
0.000199553
0.000199611
0.00019967
0.000199729
0.000199788
0.000199848
0.000199908
0.000199969
0.00020003
0.000200092
0.000200155
0.000200218
0.000200282
0.000200347
0.000200412
0.000200477
0.000200543
0.00020061
0.000200676
0.000200743
0.000200809
0.000200876
0.000200942
0.000201009
0.000201075
0.000201141
0.000201206
0.000201272
0.000201337
0.000201402
0.000201467
0.000201532
0.000201597
0.000201663
0.000201728
0.000201794
0.00020186
0.000201927
0.000201994
0.000202062
0.00020213
0.000202199
0.000202269
0.000202339
0.00020241
0.000202482
0.000202554
0.000202626
0.000202699
0.000202773
0.000202846
0.00020292
0.000202994
0.000203069
0.000203143
0.000203218
0.000203293
0.000203368
0.000203443
0.000203518
0.000203593
0.000203669
0.000203745
0.000203821
0.000203897
0.000203973
0.00020405
0.000204127
0.000204204
0.000204282
0.00020436
0.000204438
0.000204516
0.000204595
0.000204674
0.000204753
0.000204832
0.000204911
0.000204991
0.00020507
0.000205149
0.000205228
0.000205307
0.000205386
0.000205465
0.000205544
0.000205622
0.0002057
0.000205778
0.000205856
0.000205933
0.00020601
0.000206087
0.000206163
0.000206239
0.000206315
0.000206391
0.000206466
0.000206541
0.000206615
0.000206689
0.000206763
0.000206836
0.00020691
0.000206983
0.000207056
0.000207131
0.000207207
0.000207285
0.000207366
0.000207451
0.00020754
0.000207632
0.000207728
0.000207828
0.000207931
0.000208039
0.00020815
0.000208264
0.000208381
0.0002085
0.000208621
0.000208743
0.000208866
0.000208989
0.000209112
0.000209234
0.000209356
0.000209476
0.000209594
0.000209711
0.000209825
0.000209937
0.000210047
0.000210154
0.000210259
0.000210363
0.000210464
0.000210563
0.000210661
0.000210757
0.000210853
0.000210948
0.000211042
0.000211136
0.00021123
0.000211324
0.000211419
0.000211514
0.000211611
0.000211708
0.000211807
0.000211907
0.000212009
0.000212112
0.000212217
0.000212324
0.000212433
0.000212543
0.000212656
0.00021277
0.000212887
0.000213005
0.000213124
0.000213246
0.000213369
0.000213494
0.000213621
0.000213749
0.000213879
0.00021401
0.000214142
0.000214276
0.000214412
0.000214548
0.000214687
0.000214826
0.000214967
0.000215109
0.000215252
0.000215397
0.000215544
0.000215692
0.000215841
0.000215992
0.000216145
0.000216299
0.000216456
0.000216614
0.000216774
0.000216936
0.0002171
0.000217267
0.000217435
0.000217606
0.000217778
0.000217954
0.000218131
0.000218311
0.000218494
0.000218678
0.000218866
0.000219056
0.000219249
0.000219445
0.000219643
0.000219845
0.000220049
0.000220257
0.000220468
0.000220683
0.000220901
0.000221122
0.000221348
0.000221577
0.00022181
0.000222047
0.000222289
0.000222534
0.000222784
0.000223039
0.000223298
0.000223562
0.000223831
0.000224104
0.000224382
0.000224665
0.000224953
0.000225246
0.000225544
0.000225846
0.000226155
0.000226467
0.000226785
0.000227108
0.000227436
0.000227768
0.000228107
0.000228449
0.000228797
0.000229149
0.000229508
0.00022987
0.000230239
0.000230612
0.000230992
0.000231375
0.000231766
0.00023216
0.000232563
0.00023297
0.000233385
0.000233805
0.000234234
0.000234668
0.000235112
0.000235561
0.000236022
0.000236488
0.000236967
0.000237453
0.000237952
0.000238459
0.000238981
0.000239512
0.000240059
0.000240617
0.000241193
0.000241782
0.00024239
0.000243013
0.000243657
0.00024432
0.000245004
0.000245712
0.000246442
0.000247203
0.000247985
0.000248806
0.000249647
0.000250539
0.000251448
0.000252423
0.000253411
0.000254484
0.000255565
0.000256753
0.000257944
0.000259272
0.000260593
0.00026209
0.000263568
0.00026527
0.000266942
0.000268896
0.000270809
0.000273074
0.000275295
0.000277949
0.000280571
0.000283716
0.000286872
0.000290653
0.000294527
0.00029917
0.000304045
0.000309853
0.000316184
0.000323646
0.000332241
0.000342163
0.000354451
0.000368237
0.000386411
0.000407883
0.000435355
0.000472232
0.000498482
0.000595836
0.000397754
0.000453947
0.000503639
0.000526051
0.000552135
0.000576108
0.000598654
0.00061791
0.000634221
0.000647707
0.000658922
0.000668272
0.000675974
0.0006824
0.000687874
0.00069253
0.000696509
0.000699979
0.000703008
0.000705674
0.000708043
0.000710159
0.00071206
0.000713778
0.000715338
0.00071676
0.000718063
0.000719262
0.00072037
0.000721397
0.00072235
0.000723237
0.000724064
0.000724838
0.000725563
0.000726242
0.000726879
0.000727478
0.000728041
0.000728571
0.000729072
0.000729544
0.000729989
0.000730412
0.000730812
0.000731192
0.000731555
0.000731901
0.000732232
0.00073255
0.000732857
0.000733155
0.000733443
0.000733725
0.000734
0.000734271
0.000734538
0.000734803
0.000735065
0.000735325
0.000735585
0.000735844
0.000736103
0.000736362
0.000736621
0.000736881
0.00073714
0.0007374
0.00073766
0.00073792
0.000738179
0.000738437
0.000738694
0.000738949
0.000739203
0.000739454
0.000739703
0.000739949
0.000740192
0.000740432
0.000740668
0.000740901
0.00074113
0.000741355
0.000741577
0.000741795
0.000742009
0.00074222
0.000742428
0.000742634
0.000742836
0.000743037
0.000743235
0.000743432
0.000743628
0.000743823
0.000744017
0.000744211
0.000744405
0.0007446
0.000744795
0.000744991
0.000745188
0.000745387
0.000745586
0.000745788
0.00074599
0.000746195
0.000746401
0.000746608
0.000746817
0.000747026
0.000747237
0.000747449
0.000747662
0.000747875
0.000748088
0.000748301
0.000748515
0.000748727
0.00074894
0.000749151
0.000749362
0.000749571
0.00074978
0.000749987
0.000750192
0.000750396
0.000750599
0.0007508
0.000750999
0.000751197
0.000751394
0.000751589
0.000751783
0.000751976
0.000752167
0.000752358
0.000752549
0.000752739
0.000752928
0.000753117
0.000753307
0.000753496
0.000753685
0.000753875
0.000754065
0.000754256
0.000754447
0.00075464
0.000754832
0.000755026
0.00075522
0.000755415
0.000755611
0.000755807
0.000756004
0.000756202
0.0007564
0.000756599
0.000756798
0.000756997
0.000757197
0.000757397
0.000757596
0.000757796
0.000757996
0.000758195
0.000758395
0.000758594
0.000758792
0.00075899
0.000759188
0.000759385
0.000759582
0.000759778
0.000759974
0.000760169
0.000760364
0.000760558
0.000760752
0.000760946
0.00076114
0.000761333
0.000761527
0.000761721
0.000761915
0.000762109
0.000762303
0.000762498
0.000762693
0.000762889
0.000763085
0.000763282
0.00076348
0.000763679
0.000763878
0.000764078
0.000764279
0.00076448
0.000764683
0.000764886
0.00076509
0.000765295
0.000765501
0.000765707
0.000765914
0.000766122
0.00076633
0.000766539
0.000766749
0.000766959
0.000767169
0.000767379
0.00076759
0.000767801
0.000768012
0.000768223
0.000768434
0.000768645
0.000768855
0.000769065
0.000769275
0.000769484
0.000769693
0.0007699
0.000770107
0.000770313
0.000770518
0.000770722
0.000770925
0.000771127
0.000771329
0.000771529
0.000771729
0.000771928
0.000772128
0.000772327
0.000772526
0.000772726
0.000772928
0.00077313
0.000773334
0.000773539
0.000773747
0.000773957
0.000774169
0.000774384
0.0007746
0.000774819
0.00077504
0.000775263
0.000775487
0.000775712
0.000775938
0.000776165
0.000776392
0.000776619
0.000776846
0.000777074
0.000777301
0.000777528
0.000777755
0.000777983
0.000778211
0.000778439
0.000778668
0.000778898
0.000779129
0.000779362
0.000779596
0.000779831
0.000780067
0.000780305
0.000780545
0.000780785
0.000781027
0.000781269
0.000781513
0.000781757
0.000782002
0.000782247
0.000782492
0.000782738
0.000782984
0.00078323
0.000783476
0.000783722
0.000783968
0.000784215
0.000784461
0.000784709
0.000784956
0.000785205
0.000785454
0.000785704
0.000785955
0.000786208
0.000786462
0.000786717
0.000786973
0.00078723
0.000787489
0.000787749
0.000788009
0.000788271
0.000788533
0.000788796
0.000789059
0.000789323
0.000789586
0.000789849
0.000790112
0.000790375
0.000790637
0.000790898
0.000791158
0.000791418
0.000791677
0.000791936
0.000792194
0.000792452
0.000792709
0.000792967
0.000793225
0.000793484
0.000793744
0.000794005
0.000794269
0.000794535
0.000794804
0.000795076
0.000795354
0.000795636
0.000795925
0.000796221
0.000796525
0.000796839
0.000797167
0.000797508
0.000797863
0.00079823
0.000798606
0.000798994
0.000799393
0.000799802
0.000800221
0.000800649
0.000801084
0.000801524
0.000801969
0.000802414
0.000802859
0.000803301
0.000803738
0.000804168
0.00080459
0.000805001
0.000805401
0.000805789
0.000806163
0.000806524
0.000806872
0.000807205
0.000807526
0.000807834
0.00080813
0.000808416
0.000808692
0.000808961
0.000809223
0.000809479
0.000809732
0.000809983
0.000810233
0.000810483
0.000810735
0.00081099
0.000811248
0.000811512
0.000811781
0.000812057
0.000812339
0.000812629
0.000812927
0.000813234
0.000813549
0.000813874
0.000814208
0.000814552
0.000814904
0.000815267
0.000815638
0.000816018
0.000816407
0.000816805
0.00081721
0.000817623
0.000818042
0.000818469
0.000818901
0.000819339
0.000819783
0.000820231
0.000820685
0.000821142
0.000821604
0.000822071
0.000822541
0.000823015
0.000823492
0.000823974
0.000824459
0.000824949
0.000825442
0.00082594
0.000826442
0.000826949
0.000827462
0.000827979
0.000828502
0.00082903
0.000829565
0.000830106
0.000830655
0.00083121
0.000831772
0.000832342
0.00083292
0.000833505
0.0008341
0.000834702
0.000835314
0.000835934
0.000836565
0.000837204
0.000837855
0.000838514
0.000839186
0.000839867
0.00084056
0.000841264
0.000841981
0.000842709
0.000843451
0.000844203
0.000844971
0.00084575
0.000846545
0.000847351
0.000848173
0.000849007
0.000849858
0.00085072
0.0008516
0.00085249
0.000853399
0.000854318
0.000855256
0.000856203
0.00085717
0.000858145
0.00085914
0.000860142
0.000861164
0.000862192
0.000863242
0.000864295
0.00086537
0.000866448
0.000867549
0.00086865
0.000869776
0.0008709
0.000872049
0.000873196
0.000874369
0.000875538
0.000876735
0.000877926
0.000879148
0.000880362
0.000881609
0.000882846
0.000884121
0.000885383
0.000886685
0.000887975
0.000889307
0.000890626
0.000891991
0.000893344
0.000894744
0.000896134
0.000897573
0.000899005
0.000900487
0.000901968
0.000903496
0.000905031
0.000906611
0.000908209
0.000909845
0.000911514
0.000913211
0.000914962
0.000916726
0.000918573
0.000920409
0.000922367
0.000924285
0.000926372
0.00092838
0.000930618
0.000932729
0.000935142
0.000937375
0.000939994
0.000942373
0.000945228
0.000947792
0.000950913
0.000953712
0.000957131
0.000960253
0.00096398
0.000967566
0.000971581
0.000975852
0.000980079
0.000985383
0.000989667
0.000996517
0.00100064
0.00100968
0.00101353
0.00102563
0.00102866
0.00104565
0.00104666
0.00107183
0.00106831
0.00110764
0.00109523
0.0011545
0.00113875
0.00120633
0.00116181
0.00111816
0.000842205
0.000674304
0.000689493
0.000738031
0.000799466
0.000859959
0.000913252
0.00095885
0.000997101
0.00102883
0.00105516
0.00107707
0.00109542
0.00111088
0.00112403
0.00113525
0.00114492
0.00115334
0.00116069
0.00116715
0.00117287
0.00117796
0.0011825
0.00118658
0.00119025
0.00119358
0.0011966
0.00119937
0.0012019
0.00120423
0.00120637
0.00120835
0.00121019
0.00121191
0.00121351
0.00121501
0.00121642
0.00121774
0.00121899
0.00122018
0.0012213
0.00122236
0.00122338
0.00122434
0.00122527
0.00122615
0.001227
0.00122781
0.00122859
0.00122934
0.00123006
0.00123076
0.00123143
0.00123208
0.00123271
0.00123331
0.0012339
0.00123447
0.00123503
0.00123557
0.0012361
0.00123661
0.00123711
0.0012376
0.00123808
0.00123854
0.001239
0.00123945
0.0012399
0.00124033
0.00124076
0.00124119
0.00124161
0.00124202
0.00124243
0.00124284
0.00124324
0.00124364
0.00124404
0.00124443
0.00124483
0.00124522
0.00124561
0.001246
0.00124638
0.00124677
0.00124715
0.00124753
0.00124791
0.00124829
0.00124867
0.00124905
0.00124942
0.00124979
0.00125017
0.00125054
0.0012509
0.00125127
0.00125163
0.00125199
0.00125235
0.00125271
0.00125306
0.00125342
0.00125377
0.00125412
0.00125447
0.00125481
0.00125516
0.0012555
0.00125584
0.00125618
0.00125652
0.00125685
0.00125719
0.00125752
0.00125786
0.00125819
0.00125852
0.00125885
0.00125918
0.00125951
0.00125984
0.00126017
0.0012605
0.00126083
0.00126116
0.00126148
0.00126181
0.00126214
0.00126246
0.00126279
0.00126312
0.00126344
0.00126377
0.00126409
0.00126442
0.00126474
0.00126506
0.00126539
0.00126571
0.00126603
0.00126635
0.00126667
0.00126699
0.00126731
0.00126763
0.00126795
0.00126827
0.00126858
0.0012689
0.00126922
0.00126953
0.00126985
0.00127016
0.00127047
0.00127078
0.0012711
0.00127141
0.00127172
0.00127203
0.00127234
0.00127265
0.00127296
0.00127327
0.00127358
0.00127389
0.0012742
0.00127451
0.00127482
0.00127513
0.00127544
0.00127575
0.00127606
0.00127637
0.00127669
0.001277
0.00127731
0.00127762
0.00127793
0.00127824
0.00127856
0.00127887
0.00127918
0.0012795
0.00127981
0.00128013
0.00128044
0.00128076
0.00128107
0.00128139
0.0012817
0.00128202
0.00128234
0.00128265
0.00128297
0.00128329
0.00128361
0.00128393
0.00128425
0.00128457
0.00128489
0.00128521
0.00128554
0.00128586
0.00128618
0.00128651
0.00128683
0.00128716
0.00128748
0.00128781
0.00128814
0.00128847
0.00128879
0.00128912
0.00128945
0.00128978
0.00129012
0.00129045
0.00129078
0.00129111
0.00129145
0.00129178
0.00129211
0.00129244
0.00129277
0.00129311
0.00129344
0.00129377
0.00129409
0.00129442
0.00129475
0.00129507
0.0012954
0.00129572
0.00129604
0.00129636
0.00129668
0.001297
0.00129731
0.00129763
0.00129795
0.00129827
0.00129859
0.00129891
0.00129924
0.00129957
0.0012999
0.00130023
0.00130057
0.00130091
0.00130126
0.00130161
0.00130196
0.00130231
0.00130267
0.00130302
0.00130338
0.00130374
0.0013041
0.00130446
0.00130482
0.00130518
0.00130554
0.00130591
0.00130627
0.00130663
0.001307
0.00130736
0.00130773
0.0013081
0.00130847
0.00130885
0.00130922
0.0013096
0.00130998
0.00131037
0.00131075
0.00131114
0.00131153
0.00131192
0.00131231
0.0013127
0.00131309
0.00131349
0.00131388
0.00131427
0.00131466
0.00131505
0.00131545
0.00131584
0.00131623
0.00131662
0.00131701
0.0013174
0.0013178
0.00131819
0.00131859
0.00131899
0.00131939
0.00131979
0.00132019
0.00132059
0.001321
0.00132141
0.00132182
0.00132223
0.00132264
0.00132305
0.00132346
0.00132387
0.00132428
0.00132469
0.0013251
0.00132551
0.00132592
0.00132633
0.00132673
0.00132714
0.00132754
0.00132794
0.00132834
0.00132874
0.00132914
0.00132955
0.00132995
0.00133036
0.00133077
0.00133118
0.00133161
0.00133204
0.00133248
0.00133293
0.00133339
0.00133387
0.00133437
0.00133488
0.00133542
0.00133598
0.00133658
0.0013372
0.00133785
0.00133853
0.00133923
0.00133995
0.0013407
0.00134146
0.00134224
0.00134304
0.00134385
0.00134467
0.00134549
0.00134632
0.00134714
0.00134796
0.00134876
0.00134954
0.0013503
0.00135103
0.00135174
0.00135241
0.00135305
0.00135366
0.00135423
0.00135477
0.00135528
0.00135575
0.0013562
0.00135661
0.001357
0.00135737
0.00135772
0.00135806
0.00135838
0.0013587
0.00135901
0.00135931
0.00135962
0.00135993
0.00136025
0.00136057
0.00136091
0.00136125
0.00136161
0.00136198
0.00136237
0.00136278
0.0013632
0.00136364
0.00136409
0.00136457
0.00136507
0.00136558
0.00136612
0.00136668
0.00136726
0.00136785
0.00136846
0.00136909
0.00136974
0.0013704
0.00137108
0.00137177
0.00137247
0.00137318
0.00137391
0.00137464
0.00137539
0.00137614
0.0013769
0.00137768
0.00137845
0.00137924
0.00138004
0.00138084
0.00138165
0.00138247
0.00138329
0.00138412
0.00138497
0.00138582
0.00138667
0.00138754
0.00138842
0.00138931
0.00139021
0.00139112
0.00139205
0.00139298
0.00139393
0.00139489
0.00139587
0.00139686
0.00139787
0.00139889
0.00139993
0.00140099
0.00140206
0.00140316
0.00140427
0.0014054
0.00140655
0.00140773
0.00140892
0.00141014
0.00141138
0.00141264
0.00141393
0.00141524
0.00141658
0.00141794
0.00141932
0.00142073
0.00142216
0.00142362
0.0014251
0.00142661
0.00142814
0.00142969
0.00143127
0.00143287
0.0014345
0.00143614
0.00143781
0.0014395
0.00144121
0.00144294
0.0014447
0.00144647
0.00144826
0.00145007
0.0014519
0.00145375
0.00145561
0.0014575
0.0014594
0.00146132
0.00146326
0.00146521
0.00146719
0.00146918
0.0014712
0.00147323
0.00147528
0.00147735
0.00147944
0.00148155
0.00148369
0.00148585
0.00148803
0.00149024
0.00149248
0.00149474
0.00149703
0.00149936
0.00150171
0.0015041
0.00150653
0.001509
0.0015115
0.00151405
0.00151664
0.00151928
0.00152197
0.00152471
0.00152751
0.00153037
0.00153328
0.00153629
0.00153933
0.00154249
0.00154569
0.00154903
0.0015524
0.00155595
0.00155953
0.00156334
0.00156715
0.00157126
0.00157536
0.00157984
0.00158427
0.00158921
0.00159403
0.00159953
0.00160484
0.00161104
0.00161693
0.00162402
0.00163064
0.00163884
0.0016464
0.00165603
0.00166482
0.00167627
0.00168675
0.00170062
0.00171339
0.00173067
0.0017468
0.00176898
0.00179061
0.00181936
0.00185076
0.00186843
0.00194116
0.00197434
0.00202282
0.00187046
0.00171997
0.00171744
0.00102258
0.00100774
0.00102905
0.00107335
0.0011285
0.0011864
0.00124165
0.00129241
0.0013377
0.00137749
0.00141222
0.00144249
0.00146884
0.00149184
0.00151197
0.00152966
0.00154526
0.00155906
0.00157132
0.00158227
0.00159206
0.00160085
0.00160877
0.00161593
0.00162241
0.00162832
0.00163371
0.00163865
0.00164318
0.00164736
0.00165122
0.0016548
0.00165813
0.00166124
0.00166415
0.00166688
0.00166944
0.00167187
0.00167417
0.00167635
0.00167841
0.00168038
0.00168226
0.00168406
0.00168578
0.00168742
0.001689
0.00169051
0.00169196
0.00169335
0.00169469
0.00169597
0.00169719
0.00169837
0.0016995
0.00170058
0.00170162
0.00170261
0.00170357
0.00170448
0.00170535
0.0017062
0.001707
0.00170778
0.00170853
0.00170925
0.00170995
0.00171063
0.00171129
0.00171193
0.00171256
0.00171317
0.00171378
0.00171437
0.00171496
0.00171554
0.00171612
0.0017167
0.00171728
0.00171785
0.00171843
0.00171901
0.00171958
0.00172016
0.00172075
0.00172133
0.00172191
0.0017225
0.00172308
0.00172366
0.00172425
0.00172483
0.00172541
0.00172598
0.00172655
0.00172712
0.00172768
0.00172823
0.00172878
0.00172932
0.00172985
0.00173037
0.00173089
0.0017314
0.0017319
0.00173239
0.00173287
0.00173335
0.00173381
0.00173428
0.00173473
0.00173518
0.00173562
0.00173607
0.0017365
0.00173693
0.00173737
0.00173779
0.00173822
0.00173865
0.00173908
0.0017395
0.00173993
0.00174036
0.00174079
0.00174122
0.00174166
0.00174209
0.00174253
0.00174297
0.00174341
0.00174385
0.00174429
0.00174473
0.00174518
0.00174562
0.00174607
0.00174651
0.00174696
0.0017474
0.00174784
0.00174828
0.00174871
0.00174915
0.00174958
0.00175001
0.00175043
0.00175086
0.00175128
0.00175169
0.00175211
0.00175252
0.00175292
0.00175332
0.00175372
0.00175412
0.00175452
0.00175491
0.0017553
0.00175569
0.00175608
0.00175647
0.00175686
0.00175724
0.00175763
0.00175802
0.0017584
0.00175879
0.00175918
0.00175957
0.00175996
0.00176035
0.00176075
0.00176114
0.00176154
0.00176193
0.00176233
0.00176273
0.00176313
0.00176353
0.00176393
0.00176434
0.00176474
0.00176514
0.00176555
0.00176595
0.00176636
0.00176676
0.00176717
0.00176758
0.00176798
0.00176839
0.00176879
0.0017692
0.0017696
0.00177
0.00177041
0.00177081
0.00177121
0.00177162
0.00177202
0.00177242
0.00177283
0.00177323
0.00177363
0.00177403
0.00177443
0.00177484
0.00177524
0.00177565
0.00177605
0.00177646
0.00177687
0.00177727
0.00177768
0.00177809
0.00177851
0.00177892
0.00177933
0.00177975
0.00178017
0.00178058
0.001781
0.00178142
0.00178183
0.00178225
0.00178267
0.00178308
0.0017835
0.00178391
0.00178433
0.00178474
0.00178515
0.00178556
0.00178597
0.00178637
0.00178678
0.00178718
0.00178759
0.00178799
0.00178839
0.00178879
0.00178919
0.0017896
0.00179
0.00179041
0.00179082
0.00179123
0.00179164
0.00179206
0.00179249
0.00179292
0.00179335
0.00179378
0.00179422
0.00179466
0.0017951
0.00179555
0.00179599
0.00179644
0.00179689
0.00179734
0.0017978
0.00179825
0.00179871
0.00179917
0.00179963
0.00180009
0.00180056
0.00180103
0.0018015
0.00180198
0.00180246
0.00180294
0.00180343
0.00180391
0.0018044
0.00180489
0.00180538
0.00180587
0.00180636
0.00180685
0.00180734
0.00180783
0.00180832
0.00180881
0.00180929
0.00180978
0.00181026
0.00181074
0.00181123
0.00181171
0.0018122
0.00181268
0.00181317
0.00181365
0.00181414
0.00181464
0.00181513
0.00181562
0.00181612
0.00181662
0.00181712
0.00181763
0.00181813
0.00181864
0.00181914
0.00181964
0.00182015
0.00182065
0.00182115
0.00182165
0.00182215
0.00182264
0.00182313
0.00182362
0.00182411
0.00182459
0.00182507
0.00182555
0.00182603
0.00182651
0.00182699
0.00182747
0.00182796
0.00182845
0.00182895
0.00182946
0.00182998
0.00183052
0.00183108
0.00183166
0.00183227
0.00183291
0.00183358
0.0018343
0.00183506
0.00183587
0.00183674
0.00183767
0.00183866
0.00183971
0.00184079
0.00184192
0.00184307
0.00184425
0.00184546
0.00184668
0.00184792
0.00184916
0.0018504
0.00185163
0.00185284
0.00185402
0.00185517
0.00185628
0.00185733
0.00185834
0.00185928
0.00186017
0.00186099
0.00186175
0.00186244
0.00186307
0.00186364
0.00186415
0.00186461
0.00186502
0.00186539
0.00186573
0.00186603
0.00186631
0.00186657
0.00186681
0.00186705
0.00186729
0.00186753
0.00186777
0.00186803
0.0018683
0.00186859
0.0018689
0.00186923
0.00186958
0.00186996
0.00187037
0.0018708
0.00187126
0.00187176
0.00187228
0.00187283
0.00187342
0.00187404
0.00187469
0.00187537
0.00187609
0.00187683
0.0018776
0.0018784
0.00187922
0.00188006
0.00188092
0.00188181
0.00188271
0.00188363
0.00188457
0.00188552
0.00188649
0.00188747
0.00188846
0.00188947
0.00189049
0.00189152
0.00189256
0.00189361
0.00189468
0.00189575
0.00189684
0.00189794
0.00189905
0.00190017
0.00190131
0.00190246
0.00190363
0.0019048
0.001906
0.00190721
0.00190844
0.00190969
0.00191095
0.00191223
0.00191354
0.00191486
0.00191621
0.00191758
0.00191898
0.0019204
0.00192185
0.00192333
0.00192484
0.00192637
0.00192794
0.00192954
0.00193117
0.00193283
0.00193453
0.00193627
0.00193804
0.00193984
0.00194168
0.00194356
0.00194547
0.00194742
0.0019494
0.00195141
0.00195346
0.00195554
0.00195766
0.0019598
0.00196198
0.00196418
0.00196641
0.00196867
0.00197096
0.00197327
0.0019756
0.00197796
0.00198034
0.00198274
0.00198516
0.00198761
0.00199007
0.00199255
0.00199505
0.00199757
0.0020001
0.00200265
0.00200522
0.00200781
0.00201042
0.00201304
0.00201568
0.00201835
0.00202103
0.00202373
0.00202645
0.0020292
0.00203197
0.00203477
0.00203758
0.00204044
0.00204331
0.00204622
0.00204916
0.00205213
0.00205514
0.00205819
0.00206128
0.00206441
0.00206759
0.00207082
0.00207409
0.00207742
0.00208081
0.00208424
0.00208776
0.00209132
0.00209498
0.00209868
0.00210252
0.00210637
0.00211042
0.00211445
0.00211874
0.00212299
0.00212757
0.00213208
0.00213703
0.00214184
0.00214724
0.00215242
0.00215838
0.00216401
0.00217068
0.00217687
0.00218443
0.00219133
0.00220001
0.00220783
0.00221792
0.00222697
0.00223885
0.00224961
0.00226378
0.00227697
0.00229414
0.00231085
0.00233224
0.00235428
0.00238186
0.00241281
0.00244875
0.00249571
0.00254389
0.00262467
0.00269276
0.0027283
0.00280783
0.00204274
0.00121841
0.00140616
0.00137332
0.00137294
0.00139701
0.00143689
0.00148618
0.00153933
0.00159218
0.00164276
0.00168982
0.00173288
0.00177191
0.00180706
0.00183862
0.00186697
0.0018924
0.00191525
0.00193579
0.00195431
0.00197103
0.00198616
0.00199986
0.0020123
0.00202363
0.00203396
0.00204342
0.0020521
0.00206006
0.0020674
0.00207417
0.00208045
0.00208628
0.00209171
0.00209678
0.00210152
0.00210597
0.00211017
0.00211413
0.00211789
0.00212144
0.00212482
0.00212805
0.00213113
0.00213407
0.0021369
0.0021396
0.00214219
0.00214468
0.00214707
0.00214936
0.00215157
0.00215368
0.00215571
0.00215765
0.00215952
0.0021613
0.00216301
0.00216464
0.00216619
0.00216768
0.0021691
0.00217045
0.00217175
0.00217298
0.00217416
0.00217528
0.00217636
0.00217739
0.00217839
0.00217934
0.00218027
0.00218117
0.00218204
0.00218289
0.00218373
0.00218455
0.00218536
0.00218616
0.00218696
0.00218776
0.00218855
0.00218935
0.00219015
0.00219095
0.00219176
0.00219257
0.00219338
0.0021942
0.00219501
0.00219583
0.00219665
0.00219747
0.00219829
0.00219911
0.00219992
0.00220072
0.00220151
0.0022023
0.00220307
0.00220384
0.00220459
0.00220532
0.00220605
0.00220675
0.00220744
0.00220812
0.00220878
0.00220942
0.00221005
0.00221067
0.00221127
0.00221186
0.00221244
0.002213
0.00221356
0.00221411
0.00221465
0.00221519
0.00221572
0.00221625
0.00221677
0.0022173
0.00221782
0.00221835
0.00221888
0.00221941
0.00221994
0.00222048
0.00222102
0.00222156
0.00222211
0.00222266
0.00222321
0.00222377
0.00222432
0.00222489
0.00222545
0.00222601
0.00222657
0.00222714
0.0022277
0.00222826
0.00222881
0.00222936
0.00222991
0.00223045
0.00223099
0.00223153
0.00223205
0.00223257
0.00223309
0.00223359
0.0022341
0.00223459
0.00223508
0.00223556
0.00223604
0.00223651
0.00223698
0.00223744
0.0022379
0.00223836
0.00223882
0.00223927
0.00223972
0.00224018
0.00224063
0.00224108
0.00224154
0.00224199
0.00224245
0.00224291
0.00224337
0.00224383
0.00224429
0.00224476
0.00224523
0.0022457
0.00224617
0.00224664
0.00224712
0.0022476
0.00224808
0.00224856
0.00224904
0.00224953
0.00225001
0.0022505
0.00225098
0.00225147
0.00225195
0.00225243
0.00225292
0.0022534
0.00225388
0.00225436
0.00225484
0.00225532
0.00225579
0.00225627
0.00225674
0.00225722
0.00225769
0.00225816
0.00225863
0.00225909
0.00225956
0.00226003
0.00226049
0.00226096
0.00226143
0.0022619
0.00226236
0.00226283
0.0022633
0.00226378
0.00226425
0.00226473
0.0022652
0.00226568
0.00226616
0.00226664
0.00226712
0.0022676
0.00226808
0.00226857
0.00226905
0.00226953
0.00227001
0.00227049
0.00227097
0.00227145
0.00227193
0.00227241
0.00227289
0.00227337
0.00227385
0.00227432
0.0022748
0.00227527
0.00227574
0.00227621
0.00227669
0.00227716
0.00227763
0.0022781
0.00227858
0.00227905
0.00227953
0.00228002
0.0022805
0.00228099
0.00228148
0.00228198
0.00228248
0.00228298
0.00228349
0.002284
0.00228452
0.00228503
0.00228555
0.00228607
0.0022866
0.00228713
0.00228766
0.0022882
0.00228874
0.00228928
0.00228983
0.00229039
0.00229095
0.00229151
0.00229208
0.00229265
0.00229322
0.0022938
0.00229437
0.00229495
0.00229553
0.0022961
0.00229667
0.00229724
0.00229781
0.00229838
0.00229895
0.00229951
0.00230007
0.00230062
0.00230118
0.00230174
0.00230229
0.00230285
0.0023034
0.00230396
0.00230452
0.00230508
0.00230564
0.0023062
0.00230677
0.00230734
0.00230792
0.00230849
0.00230907
0.00230965
0.00231023
0.0023108
0.00231138
0.00231196
0.00231253
0.0023131
0.00231367
0.00231423
0.00231479
0.00231534
0.00231589
0.00231643
0.00231697
0.0023175
0.00231803
0.00231855
0.00231908
0.0023196
0.00232013
0.00232066
0.00232119
0.00232173
0.00232229
0.00232286
0.00232346
0.00232407
0.00232472
0.00232541
0.00232614
0.00232692
0.00232776
0.00232867
0.00232965
0.00233072
0.00233188
0.00233315
0.00233452
0.00233598
0.00233752
0.00233911
0.00234075
0.00234244
0.00234415
0.00234589
0.00234764
0.00234939
0.00235114
0.00235285
0.00235453
0.00235616
0.00235772
0.00235921
0.00236062
0.00236193
0.00236314
0.00236425
0.00236526
0.00236615
0.00236695
0.00236764
0.00236823
0.00236873
0.00236915
0.0023695
0.00236978
0.00237
0.00237017
0.00237031
0.00237042
0.00237051
0.00237059