/*--------------------------------*- C++ -*----------------------------------*\
| =========                 |                                                 |
| \\      /  F ield         | OpenFOAM: The Open Source CFD Toolbox           |
|  \\    /   O peration     | Version:  2.4.0                                 |
|   \\  /    A nd           | Web:      www.OpenFOAM.org                      |
|    \\/     M anipulation  |                                                 |
\*---------------------------------------------------------------------------*/
FoamFile
{
    version     2.0;
    format      ascii;
    class       volScalarField;
    location    "0/region3d";
    object      omega;
}
// * * * * * * * * * * * * * * * * * * * * * * * * * * * * * * * * * * * * * //

dimensions      [0 0 -1 0 0 0 0];

internalField   nonuniform List<scalar> 
390000
(
226.108
212.523
204.925
201.56
201.044
201.912
203.534
205.295
206.989
208.512
209.841
210.989
211.972
212.817
213.555
214.2
214.769
215.277
215.731
216.139
216.507
216.84
217.141
217.414
217.661
217.883
218.084
218.266
218.429
218.577
218.71
218.83
218.94
219.04
219.132
219.218
219.298
219.376
219.451
219.525
219.599
219.673
219.75
219.828
219.91
219.995
220.084
220.176
220.272
220.372
220.475
220.582
220.691
220.802
220.915
221.03
221.144
221.259
221.374
221.487
221.599
221.708
221.814
221.918
222.017
222.113
222.205
222.292
222.375
222.453
222.527
222.597
222.663
222.726
222.784
222.84
222.894
222.945
222.994
223.043
223.09
223.138
223.185
223.233
223.283
223.333
223.386
223.44
223.497
223.556
223.617
223.681
223.748
223.817
223.888
223.962
224.038
224.116
224.196
224.276
224.358
224.441
224.524
224.608
224.691
224.774
224.856
224.937
225.017
225.096
225.173
225.249
225.322
225.394
225.464
225.532
225.599
225.664
225.727
225.788
225.849
225.908
225.966
226.024
226.081
226.137
226.194
226.25
226.307
226.365
226.423
226.481
226.541
226.601
226.663
226.726
226.79
226.855
226.921
226.989
227.057
227.127
227.198
227.269
227.342
227.415
227.488
227.562
227.636
227.71
227.784
227.857
227.931
228.004
228.076
228.148
228.219
228.289
228.359
228.428
228.496
228.563
228.63
228.695
228.761
228.825
228.889
228.953
229.017
229.08
229.143
229.206
229.269
229.333
229.396
229.46
229.524
229.589
229.654
229.719
229.785
229.852
229.919
229.987
230.056
230.125
230.195
230.266
230.337
230.408
230.48
230.553
230.626
230.699
230.773
230.847
230.921
230.995
231.07
231.144
231.219
231.293
231.367
231.441
231.515
231.589
231.662
231.735
231.808
231.881
231.953
232.025
232.096
232.168
232.239
232.31
232.381
232.452
232.522
232.592
232.663
232.733
232.803
232.873
232.943
233.013
233.083
233.153
233.223
233.292
233.363
233.433
233.503
233.574
233.646
233.717
233.79
233.863
233.937
234.012
234.087
234.164
234.241
234.319
234.397
234.477
234.556
234.637
234.717
234.798
234.878
234.959
235.04
235.12
235.2
235.28
235.36
235.439
235.518
235.596
235.675
235.753
235.831
235.909
235.987
236.066
236.144
236.224
236.304
236.384
236.465
236.547
236.63
236.714
236.799
236.884
236.971
237.058
237.145
237.234
237.323
237.413
237.503
237.593
237.684
237.775
237.866
237.958
238.05
238.141
238.234
238.326
238.418
238.511
238.604
238.697
238.79
238.884
238.978
239.072
239.166
239.261
239.356
239.451
239.547
239.643
239.739
239.835
239.931
240.028
240.124
240.221
240.317
240.414
240.51
240.606
240.702
240.798
240.893
240.989
241.084
241.178
241.273
241.367
241.46
241.553
241.646
241.738
241.83
241.921
242.012
242.101
242.19
242.279
242.366
242.453
242.539
242.626
242.712
242.8
242.891
242.985
243.084
243.187
243.295
243.408
243.525
243.648
243.776
243.908
244.044
244.185
244.329
244.475
244.624
244.775
244.926
245.078
245.23
245.381
245.531
245.679
245.826
245.97
246.112
246.251
246.387
246.521
246.652
246.781
246.907
247.032
247.154
247.275
247.396
247.515
247.633
247.752
247.87
247.989
248.108
248.228
248.349
248.471
248.595
248.721
248.848
248.977
249.109
249.242
249.378
249.515
249.655
249.797
249.942
250.088
250.236
250.387
250.539
250.694
250.851
251.009
251.169
251.332
251.496
251.662
251.829
251.999
252.17
252.343
252.518
252.695
252.874
253.055
253.238
253.423
253.61
253.8
253.991
254.185
254.381
254.58
254.782
254.985
255.192
255.401
255.613
255.828
256.046
256.267
256.49
256.717
256.947
257.18
257.417
257.657
257.9
258.147
258.398
258.653
258.911
259.174
259.441
259.713
259.989
260.27
260.556
260.847
261.143
261.445
261.751
262.064
262.382
262.706
263.036
263.372
263.714
264.062
264.417
264.778
265.144
265.518
265.898
266.285
266.677
267.077
267.483
267.896
268.315
268.741
269.173
269.613
270.059
270.513
270.972
271.441
271.914
272.398
272.887
273.387
273.892
274.408
274.931
275.466
276.007
276.563
277.125
277.702
278.287
278.888
279.499
280.127
280.766
281.424
282.095
282.787
283.493
284.223
284.969
285.741
286.533
287.353
288.197
289.07
289.973
290.907
291.878
292.882
293.932
295.014
296.155
297.328
298.577
299.855
301.231
302.631
304.158
305.7
307.41
309.12
311.053
312.962
315.169
317.318
319.865
322.304
325.281
328.077
331.604
334.846
339.083
342.9
348.064
352.652
359.033
364.722
372.734
379.989
390.328
399.922
413.792
427.078
446.455
466.008
494.041
527.302
569.38
634.998
693.98
912.089
133.408
110.631
100.642
95.5635
92.7189
90.9213
89.6241
88.6943
88.0225
87.5449
87.2028
86.9586
86.7917
86.6809
86.6084
86.5664
86.5473
86.5446
86.5549
86.5742
86.6002
86.631
86.6646
86.6996
86.7352
86.7703
86.8044
86.8368
86.8671
86.8951
86.9205
86.9434
86.9637
86.9817
86.9975
87.0113
87.0234
87.0342
87.0439
87.0531
87.0622
87.0714
87.0811
87.0917
87.1036
87.117
87.1323
87.1495
87.1688
87.1904
87.2144
87.2407
87.2693
87.3001
87.3331
87.3679
87.4045
87.4427
87.4822
87.5227
87.5639
87.6057
87.6476
87.6895
87.731
87.7719
87.8119
87.8509
87.8886
87.9249
87.9597
87.9928
88.0243
88.054
88.082
88.1083
88.133
88.1562
88.1781
88.1986
88.2182
88.2368
88.2547
88.2721
88.2892
88.3061
88.3232
88.3405
88.3583
88.3767
88.3958
88.4157
88.4367
88.4586
88.4817
88.5059
88.5312
88.5577
88.5852
88.6138
88.6434
88.6739
88.7051
88.737
88.7694
88.8023
88.8354
88.8687
88.902
88.9352
88.9682
89.0009
89.0331
89.0647
89.0958
89.1262
89.1559
89.1848
89.213
89.2404
89.2671
89.2931
89.3183
89.3429
89.367
89.3906
89.4137
89.4365
89.459
89.4814
89.5037
89.526
89.5484
89.571
89.5938
89.617
89.6405
89.6645
89.6889
89.7138
89.7392
89.7651
89.7916
89.8186
89.8461
89.8741
89.9025
89.9313
89.9605
89.9899
90.0196
90.0495
90.0794
90.1095
90.1395
90.1694
90.1993
90.2289
90.2584
90.2876
90.3166
90.3452
90.3736
90.4016
90.4293
90.4567
90.4838
90.5107
90.5372
90.5636
90.5897
90.6156
90.6415
90.6672
90.6928
90.7184
90.744
90.7697
90.7954
90.8213
90.8472
90.8734
90.8997
90.9263
90.9531
90.9802
91.0075
91.0351
91.063
91.0912
91.1196
91.1484
91.1773
91.2066
91.236
91.2657
91.2955
91.3256
91.3557
91.386
91.4164
91.4469
91.4774
91.508
91.5385
91.569
91.5995
91.6299
91.6602
91.6903
91.7204
91.7503
91.7801
91.8098
91.8393
91.8687
91.8979
91.9271
91.9561
91.985
92.0137
92.0424
92.071
92.0995
92.1279
92.1562
92.1845
92.2127
92.2408
92.2688
92.2969
92.3249
92.3529
92.381
92.4092
92.4376
92.4662
92.495
92.5241
92.5536
92.5834
92.6136
92.6443
92.6754
92.7068
92.7387
92.7709
92.8034
92.8361
92.8691
92.9022
92.9354
92.9687
93.002
93.0351
93.0682
93.1012
93.1339
93.1665
93.199
93.2312
93.2633
93.2952
93.3271
93.3589
93.3907
93.4225
93.4545
93.4865
93.5188
93.5513
93.5841
93.6172
93.6506
93.6844
93.7186
93.7531
93.788
93.8232
93.8588
93.8946
93.9307
93.967
94.0036
94.0403
94.0772
94.1142
94.1513
94.1885
94.2258
94.2631
94.3005
94.338
94.3755
94.4131
94.4508
94.4886
94.5265
94.5645
94.6026
94.6409
94.6793
94.7179
94.7566
94.7955
94.8345
94.8736
94.9128
94.9522
94.9916
95.0312
95.0707
95.1103
95.15
95.1896
95.2292
95.2688
95.3083
95.3477
95.387
95.4262
95.4653
95.5043
95.5431
95.5817
95.6201
95.6584
95.6964
95.7341
95.7715
95.8087
95.8454
95.8818
95.9176
95.9531
95.988
96.0225
96.0563
96.0894
96.1222
96.1551
96.189
96.2242
96.2611
96.2998
96.3406
96.3834
96.4286
96.4761
96.5258
96.5777
96.6318
96.6877
96.7453
96.8043
96.8645
96.9257
96.9875
97.0498
97.1122
97.1745
97.2365
97.298
97.3587
97.4186
97.4776
97.5354
97.5922
97.6478
97.7023
97.7557
97.8081
97.8596
97.9102
97.9602
98.0095
98.0584
98.1069
98.1553
98.2035
98.2518
98.3002
98.3488
98.3978
98.4472
98.4971
98.5475
98.5987
98.6505
98.7032
98.7566
98.8109
98.866
98.9219
98.9787
99.0364
99.0949
99.1543
99.2145
99.2755
99.3374
99.4
99.4634
99.5275
99.5923
99.6579
99.7241
99.7911
99.8587
99.927
99.996
100.066
100.136
100.207
100.279
100.352
100.425
100.5
100.575
100.651
100.727
100.805
100.884
100.963
101.044
101.126
101.209
101.292
101.377
101.463
101.551
101.639
101.728
101.819
101.911
102.004
102.099
102.195
102.292
102.39
102.49
102.592
102.695
102.8
102.906
103.014
103.123
103.235
103.348
103.463
103.58
103.7
103.821
103.944
104.07
104.198
104.328
104.461
104.595
104.733
104.873
105.015
105.16
105.307
105.457
105.61
105.765
105.923
106.083
106.246
106.412
106.58
106.751
106.925
107.102
107.282
107.464
107.649
107.837
108.029
108.223
108.421
108.621
108.826
109.034
109.246
109.461
109.681
109.904
110.133
110.365
110.603
110.845
111.094
111.347
111.607
111.873
112.146
112.425
112.713
113.007
113.311
113.623
113.944
114.276
114.618
114.972
115.336
115.716
116.106
116.515
116.934
117.377
117.83
118.312
118.803
119.33
119.866
120.445
121.034
121.676
122.327
123.041
123.769
124.567
125.389
126.285
127.226
128.234
129.329
130.466
131.763
133.044
134.611
136.051
137.978
139.592
142.02
143.79
146.934
148.787
153.029
154.789
160.748
161.977
169.797
172.032
198.254
218.455
265.19
81.2228
69.9351
63.4523
59.5301
57.0937
55.5061
54.3738
53.5366
52.8954
52.3978
52.0074
51.6993
51.4554
51.2619
51.1055
50.9814
50.8828
50.8035
50.7412
50.6923
50.6543
50.6253
50.6037
50.5879
50.577
50.5698
50.5657
50.5637
50.5632
50.5638
50.5649
50.5663
50.5676
50.5687
50.5694
50.5695
50.5692
50.5683
50.5669
50.5651
50.563
50.5608
50.5585
50.5564
50.5547
50.5535
50.5529
50.5532
50.5545
50.5569
50.5605
50.5655
50.5718
50.5796
50.5888
50.5994
50.6115
50.6249
50.6396
50.6555
50.6725
50.6905
50.7093
50.7288
50.7488
50.7693
50.7899
50.8107
50.8314
50.8518
50.872
50.8916
50.9108
50.9292
50.947
50.9639
50.9801
50.9954
51.0099
51.0236
51.0365
51.0486
51.0601
51.071
51.0814
51.0913
51.1009
51.1103
51.1195
51.1287
51.138
51.1475
51.1572
51.1672
51.1777
51.1886
51.2
51.2121
51.2247
51.2379
51.2517
51.2662
51.2812
51.2969
51.313
51.3296
51.3467
51.3641
51.3818
51.3998
51.4179
51.4362
51.4545
51.4727
51.4908
51.5088
51.5266
51.5441
51.5613
51.5782
51.5948
51.6109
51.6267
51.6421
51.6571
51.6717
51.686
51.6999
51.7136
51.727
51.7402
51.7533
51.7662
51.779
51.7918
51.8046
51.8174
51.8304
51.8434
51.8567
51.8701
51.8838
51.8977
51.9119
51.9264
51.9411
51.9561
51.9715
51.987
52.0029
52.0189
52.0352
52.0517
52.0683
52.0851
52.1019
52.1188
52.1358
52.1527
52.1697
52.1865
52.2033
52.22
52.2366
52.253
52.2693
52.2855
52.3015
52.3173
52.333
52.3486
52.364
52.3792
52.3944
52.4095
52.4245
52.4394
52.4542
52.469
52.4838
52.4986
52.5134
52.5282
52.5431
52.5581
52.5732
52.5883
52.6036
52.619
52.6346
52.6503
52.6662
52.6822
52.6983
52.7146
52.7311
52.7477
52.7644
52.7813
52.7983
52.8154
52.8326
52.8499
52.8672
52.8846
52.9021
52.9196
52.9372
52.9547
52.9722
52.9897
53.0072
53.0246
53.0419
53.0592
53.0765
53.0936
53.1107
53.1278
53.1447
53.1616
53.1784
53.1951
53.2118
53.2284
53.2449
53.2613
53.2777
53.294
53.3101
53.3262
53.3423
53.3582
53.3741
53.3899
53.4058
53.4217
53.4376
53.4537
53.4698
53.4862
53.5028
53.5196
53.5366
53.554
53.5716
53.5895
53.6076
53.626
53.6446
53.6634
53.6824
53.7014
53.7205
53.7397
53.7589
53.778
53.7971
53.8161
53.8349
53.8537
53.8724
53.8909
53.9093
53.9277
53.946
53.9642
53.9825
54.0007
54.0191
54.0375
54.056
54.0747
54.0935
54.1125
54.1317
54.1511
54.1707
54.1905
54.2105
54.2307
54.251
54.2715
54.2921
54.3128
54.3337
54.3545
54.3755
54.3965
54.4175
54.4386
54.4597
54.4808
54.502
54.5232
54.5444
54.5657
54.587
54.6084
54.6299
54.6515
54.6732
54.6949
54.7168
54.7388
54.7609
54.7831
54.8054
54.8277
54.8502
54.8727
54.8953
54.918
54.9407
54.9634
54.9861
55.0088
55.0316
55.0543
55.077
55.0996
55.1222
55.1448
55.1673
55.1897
55.2121
55.2344
55.2566
55.2787
55.3007
55.3226
55.3443
55.3659
55.3873
55.4084
55.4294
55.4501
55.4704
55.4902
55.5093
55.528
55.5468
55.5659
55.5857
55.6063
55.6279
55.6506
55.6745
55.6998
55.7263
55.7542
55.7833
55.8136
55.8451
55.8775
55.9107
55.9446
55.9791
56.0139
56.049
56.0841
56.1192
56.154
56.1886
56.2227
56.2562
56.2892
56.3215
56.3532
56.3842
56.4144
56.4441
56.4731
56.5016
56.5296
56.5572
56.5844
56.6114
56.6381
56.6648
56.6914
56.718
56.7448
56.7716
56.7987
56.826
56.8536
56.8816
56.91
56.9388
56.9681
56.9979
57.0281
57.0589
57.0902
57.122
57.1543
57.1871
57.2204
57.2542
57.2885
57.3231
57.3583
57.3938
57.4297
57.466
57.5027
57.5397
57.577
57.6147
57.6527
57.691
57.7297
57.7687
57.808
57.8477
57.8877
57.9281
57.9689
58.0101
58.0517
58.0938
58.1363
58.1794
58.2229
58.267
58.3116
58.3568
58.4026
58.4489
58.4959
58.5435
58.5917
58.6405
58.69
58.7402
58.791
58.8425
58.8946
58.9475
59.0011
59.0554
59.1105
59.1663
59.223
59.2805
59.3388
59.3979
59.458
59.519
59.581
59.644
59.708
59.773
59.8391
59.9063
59.9747
60.0442
60.1149
60.1869
60.2601
60.3345
60.4103
60.4873
60.5657
60.6454
60.7265
60.8089
60.8927
60.9779
61.0645
61.1524
61.2418
61.3325
61.4247
61.5183
61.6133
61.7097
61.8076
61.907
62.0079
62.1103
62.2143
62.3198
62.4271
62.5359
62.6465
62.7589
62.8731
62.9892
63.1074
63.2275
63.3499
63.4744
63.6014
63.7308
63.8628
63.9975
64.1351
64.2757
64.4195
64.5666
64.7173
64.8715
65.0298
65.1921
65.3589
65.5301
65.7063
65.8876
66.0741
66.2667
66.4649
66.6704
66.8816
67.1016
67.3272
67.5641
67.8056
68.0619
68.321
68.6001
68.8782
69.1847
69.483
69.8224
70.1411
70.5207
70.8592
71.2885
71.6433
72.1353
72.4983
73.0694
73.4245
74.0963
74.4124
75.2137
75.4264
76.3834
76.3785
77.5093
77.1214
78.3069
77.2606
78.2272
77.2589
84.5398
85.291
83.7053
56.3644
50.1557
45.9195
43.0955
41.2326
39.9587
39.0687
38.4077
37.8958
37.4853
37.1506
36.8747
36.6435
36.4489
36.2839
36.1443
36.0257
35.924
35.8378
35.7643
35.7017
35.6484
35.6031
35.5648
35.5323
35.5049
35.4819
35.4624
35.4458
35.4316
35.4193
35.4086
35.3991
35.3904
35.3822
35.3745
35.3669
35.3595
35.3522
35.3447
35.3372
35.3297
35.3222
35.3147
35.3074
35.3003
35.2936
35.2872
35.2815
35.2763
35.2719
35.2684
35.2657
35.2641
35.2635
35.264
35.2656
35.2683
35.2721
35.277
35.283
35.29
35.298
35.3068
35.3164
35.3268
35.3377
35.3491
35.361
35.373
35.3853
35.3976
35.4099
35.4221
35.434
35.4457
35.457
35.4678
35.4782
35.4881
35.4976
35.5064
35.5148
35.5227
35.5301
35.5371
35.5437
35.5499
35.5559
35.5617
35.5673
35.5728
35.5783
35.5839
35.5896
35.5955
35.6016
35.608
35.6147
35.6217
35.6292
35.6371
35.6454
35.6542
35.6634
35.673
35.683
35.6934
35.7042
35.7153
35.7267
35.7383
35.7501
35.762
35.774
35.7861
35.7982
35.8103
35.8223
35.8341
35.8458
35.8574
35.8687
35.8798
35.8907
35.9013
35.9116
35.9217
35.9316
35.9412
35.9507
35.9599
35.9689
35.9778
35.9866
35.9953
36.0039
36.0125
36.0211
36.0298
36.0385
36.0472
36.0561
36.0652
36.0744
36.0837
36.0933
36.103
36.1129
36.1231
36.1334
36.1439
36.1546
36.1655
36.1765
36.1876
36.1989
36.2102
36.2217
36.2332
36.2447
36.2562
36.2677
36.2792
36.2907
36.3021
36.3134
36.3247
36.3358
36.3469
36.3579
36.3688
36.3796
36.3903
36.4009
36.4114
36.4219
36.4322
36.4425
36.4528
36.463
36.4732
36.4833
36.4935
36.5036
36.5138
36.524
36.5343
36.5446
36.555
36.5655
36.5761
36.5867
36.5975
36.6083
36.6193
36.6304
36.6415
36.6528
36.6642
36.6757
36.6872
36.6989
36.7107
36.7225
36.7344
36.7464
36.7584
36.7705
36.7826
36.7947
36.8068
36.8189
36.831
36.8431
36.8552
36.8672
36.8792
36.8912
36.9031
36.915
36.9268
36.9386
36.9504
36.9621
36.9737
36.9853
36.9967
37.0081
37.0195
37.0307
37.0418
37.0528
37.0637
37.0745
37.0853
37.096
37.1066
37.1173
37.128
37.1388
37.1498
37.1608
37.172
37.1834
37.1951
37.2069
37.219
37.2313
37.2438
37.2565
37.2694
37.2824
37.2956
37.3088
37.3221
37.3354
37.3487
37.3619
37.3751
37.3882
37.4012
37.4141
37.427
37.4397
37.4523
37.4649
37.4775
37.49
37.5025
37.5151
37.5277
37.5403
37.5531
37.5659
37.5789
37.592
37.6053
37.6187
37.6322
37.6459
37.6597
37.6736
37.6876
37.7017
37.7158
37.73
37.7443
37.7586
37.7729
37.7872
37.8016
37.8159
37.8303
37.8446
37.859
37.8734
37.8879
37.9024
37.9169
37.9315
37.9462
37.9609
37.9757
37.9906
38.0056
38.0207
38.0358
38.0511
38.0664
38.0818
38.0973
38.1128
38.1284
38.144
38.1597
38.1754
38.1911
38.2069
38.2226
38.2384
38.2541
38.2699
38.2856
38.3013
38.317
38.3327
38.3484
38.3641
38.3797
38.3954
38.411
38.4265
38.442
38.4573
38.4726
38.4877
38.5025
38.5168
38.5305
38.5436
38.5563
38.569
38.5818
38.595
38.6087
38.623
38.638
38.6539
38.6708
38.6885
38.7073
38.7269
38.7474
38.7687
38.7907
38.8133
38.8364
38.8599
38.8837
38.9076
38.9315
38.9554
38.9792
39.0027
39.0258
39.0486
39.0709
39.0927
39.114
39.1347
39.155
39.1747
39.194
39.2129
39.2314
39.2496
39.2675
39.2853
39.3029
39.3204
39.3379
39.3554
39.3729
39.3906
39.4084
39.4263
39.4445
39.463
39.4818
39.5009
39.5204
39.5402
39.5604
39.581
39.602
39.6233
39.645
39.6671
39.6895
39.7123
39.7354
39.7588
39.7825
39.8064
39.8307
39.8551
39.8798
39.9047
39.9297
39.955
39.9804
40.006
40.0318
40.0577
40.0838
40.1101
40.1365
40.1632
40.1901
40.2172
40.2446
40.2722
40.3001
40.3283
40.3568
40.3856
40.4148
40.4443
40.4742
40.5045
40.5352
40.5663
40.5978
40.6297
40.662
40.6947
40.7278
40.7614
40.7954
40.8299
40.8648
40.9001
40.9359
40.9722
41.0089
41.0461
41.0838
41.122
41.1608
41.2001
41.2399
41.2804
41.3214
41.3631
41.4053
41.4483
41.4919
41.5362
41.5812
41.627
41.6735
41.7208
41.7689
41.8178
41.8675
41.918
41.9694
42.0216
42.0747
42.1287
42.1834
42.2391
42.2956
42.3531
42.4113
42.4705
42.5305
42.5914
42.6531
42.7158
42.7793
42.8438
42.9091
42.9754
43.0425
43.1106
43.1796
43.2497
43.3206
43.3926
43.4656
43.5397
43.6148
43.6912
43.7686
43.8474
43.9272
44.0086
44.0911
44.1753
44.2607
44.3478
44.4365
44.5268
44.619
44.7127
44.8087
44.9061
45.0063
45.1076
45.2123
45.3177
45.4275
45.5372
45.6525
45.7665
45.8881
46.0063
46.1348
46.2567
46.3931
46.5179
46.6632
46.7895
46.9451
47.0702
47.2372
47.3571
47.5372
47.645
47.8394
47.9243
48.1335
48.1772
48.4008
48.3729
48.6074
48.4516
48.6797
48.3039
48.4794
47.7623
47.7105
46.477
45.9758
44.1218
44.0356
40.6511
39.5981
42.392
38.7025
35.8282
33.7281
32.2447
31.1925
30.4398
29.8957
29.4828
29.1564
28.8899
28.6676
28.4779
28.3137
28.1714
28.0466
27.9368
27.84
27.7551
27.68
27.6137
27.5553
27.504
27.4588
27.4191
27.3843
27.3537
27.3267
27.3029
27.2819
27.2632
27.2465
27.2314
27.2176
27.2049
27.1929
27.1816
27.1708
27.1603
27.1501
27.1399
27.1299
27.12
27.1102
27.1004
27.0909
27.0815
27.0723
27.0635
27.0551
27.0472
27.0398
27.0331
27.027
27.0217
27.0173
27.0136
27.0109
27.0091
27.0083
27.0084
27.0093
27.0113
27.014
27.0176
27.022
27.0271
27.0328
27.0391
27.0459
27.053
27.0605
27.0682
27.0761
27.084
27.0919
27.0998
27.1075
27.115
27.1222
27.1292
27.1358
27.1421
27.148
27.1535
27.1587
27.1636
27.1682
27.1724
27.1764
27.1802
27.1838
27.1873
27.1908
27.1942
27.1976
27.2011
27.2048
27.2086
27.2126
27.2169
27.2214
27.2263
27.2315
27.237
27.2428
27.249
27.2556
27.2624
27.2696
27.2771
27.2849
27.2928
27.3011
27.3094
27.318
27.3266
27.3353
27.3441
27.3528
27.3615
27.3702
27.3788
27.3872
27.3955
27.4037
27.4117
27.4195
27.4272
27.4346
27.4419
27.449
27.456
27.4627
27.4694
27.4759
27.4824
27.4887
27.495
27.5013
27.5076
27.5138
27.5202
27.5265
27.533
27.5396
27.5462
27.553
27.56
27.567
27.5743
27.5817
27.5892
27.5969
27.6048
27.6127
27.6208
27.6291
27.6374
27.6458
27.6542
27.6627
27.6713
27.6798
27.6884
27.697
27.7055
27.7141
27.7225
27.731
27.7394
27.7477
27.7559
27.7641
27.7722
27.7803
27.7883
27.7962
27.804
27.8118
27.8196
27.8273
27.8349
27.8425
27.8501
27.8577
27.8653
27.873
27.8806
27.8883
27.896
27.9037
27.9115
27.9194
27.9273
27.9354
27.9434
27.9516
27.9598
27.9682
27.9766
27.9851
27.9937
28.0024
28.0111
28.0199
28.0288
28.0378
28.0468
28.0559
28.065
28.0741
28.0833
28.0924
28.1016
28.1108
28.12
28.1292
28.1383
28.1475
28.1566
28.1657
28.1747
28.1838
28.1928
28.2018
28.2107
28.2195
28.2283
28.237
28.2456
28.2541
28.2625
28.2708
28.2789
28.287
28.295
28.3029
28.3107
28.3186
28.3264
28.3343
28.3423
28.3503
28.3586
28.3669
28.3755
28.3843
28.3932
28.4024
28.4118
28.4213
28.431
28.4408
28.4508
28.4608
28.4709
28.4809
28.491
28.5011
28.5111
28.521
28.5308
28.5406
28.5503
28.5599
28.5694
28.5788
28.5882
28.5976
28.607
28.6164
28.6258
28.6353
28.6448
28.6544
28.6641
28.674
28.6839
28.6939
28.7041
28.7143
28.7247
28.7351
28.7456
28.7562
28.7668
28.7774
28.7881
28.7988
28.8095
28.8202
28.8309
28.8416
28.8523
28.863
28.8737
28.8844
28.8951
28.9059
28.9167
28.9275
28.9385
28.9494
28.9605
28.9716
28.9828
28.994
29.0054
29.0168
29.0283
29.0399
29.0515
29.0632
29.0749
29.0867
29.0986
29.1105
29.1224
29.1343
29.1463
29.1583
29.1703
29.1824
29.1944
29.2065
29.2186
29.2308
29.2429
29.2551
29.2674
29.2797
29.2919
29.3042
29.3164
29.3286
29.3407
29.3526
29.3641
29.375
29.3853
29.395
29.4045
29.4138
29.4231
29.4327
29.4426
29.453
29.4639
29.4756
29.4879
29.501
29.5149
29.5295
29.5448
29.5607
29.5772
29.5941
29.6114
29.629
29.6468
29.6648
29.6827
29.7006
29.7183
29.7358
29.753
29.7699
29.7864
29.8024
29.8181
29.8332
29.848
29.8623
29.8763
29.8899
29.9032
29.9162
29.9291
29.9418
29.9544
29.9669
29.9793
29.9918
30.0044
30.017
30.0297
30.0426
30.0557
30.069
30.0826
30.0964
30.1106
30.1251
30.1398
30.1549
30.1704
30.1861
30.2021
30.2184
30.235
30.2519
30.269
30.2863
30.3039
30.3217
30.3396
30.3577
30.3759
30.3943
30.4127
30.4313
30.45
30.4687
30.4875
30.5065
30.5255
30.5445
30.5637
30.583
30.6024
30.6219
30.6416
30.6614
30.6814
30.7016
30.722
30.7426
30.7635
30.7846
30.8059
30.8276
30.8495
30.8716
30.8941
30.9169
30.9399
30.9633
30.9869
31.0109
31.0351
31.0596
31.0845
31.1096
31.135
31.1607
31.1868
31.2131
31.2398
31.2668
31.2941
31.3217
31.3497
31.3781
31.4068
31.4359
31.4654
31.4953
31.5257
31.5565
31.5878
31.6195
31.6517
31.6844
31.7177
31.7514
31.7858
31.8207
31.8561
31.8922
31.9288
31.966
32.0038
32.0421
32.0811
32.1206
32.1607
32.2014
32.2427
32.2845
32.327
32.3699
32.4135
32.4576
32.5023
32.5475
32.5934
32.6396
32.6866
32.7339
32.7819
32.8304
32.8795
32.929
32.9792
33.0298
33.0812
33.1329
33.1854
33.2384
33.292
33.3462
33.4011
33.4566
33.5126
33.5694
33.6266
33.6848
33.7431
33.8028
33.8621
33.9231
33.9832
34.0457
34.1064
34.1703
34.2311
34.2964
34.3566
34.4231
34.4817
34.5493
34.6047
34.6731
34.7233
34.7918
34.8336
34.9013
34.9302
34.9953
35.0045
35.0641
35.0438
35.0926
35.0276
35.0571
34.9237
34.9199
34.6756
34.6117
34.1885
34.0167
33.33
32.9333
31.8861
31.1277
29.461
28.2607
25.2576
26.2498
33.5504
31.2364
29.2642
27.6929
26.4985
25.6044
24.9414
24.4518
24.0878
23.8082
23.5859
23.4041
23.251
23.1189
23.0037
22.9016
22.8103
22.7292
22.6561
22.59
22.5305
22.4769
22.4289
22.3857
22.3469
22.312
22.2806
22.2524
22.2271
22.2043
22.1838
22.1651
22.1481
22.1324
22.1179
22.1044
22.0917
22.0795
22.0679
22.0565
22.0454
22.0346
22.0238
22.0132
22.0027
21.9923
21.9821
21.9719
21.962
21.9524
21.9431
21.9341
21.9256
21.9176
21.9101
21.9032
21.897
21.8915
21.8868
21.8827
21.8795
21.8771
21.8755
21.8747
21.8746
21.8753
21.8766
21.8787
21.8813
21.8846
21.8883
21.8924
21.8969
21.9017
21.9067
21.9118
21.9171
21.9224
21.9276
21.9328
21.9378
21.9426
21.9473
21.9517
21.9559
21.9598
21.9634
21.9668
21.9699
21.9728
21.9755
21.978
21.9804
21.9826
21.9848
21.9869
21.989
21.9911
21.9933
21.9957
21.9981
22.0008
22.0036
22.0067
22.0101
22.0137
22.0176
22.0218
22.0262
22.031
22.036
22.0413
22.0468
22.0526
22.0585
22.0647
22.071
22.0774
22.0839
22.0905
22.0971
22.1037
22.1104
22.1169
22.1235
22.1299
22.1363
22.1425
22.1486
22.1546
22.1604
22.1661
22.1716
22.1771
22.1824
22.1875
22.1926
22.1976
22.2025
22.2073
22.2122
22.2169
22.2217
22.2265
22.2314
22.2363
22.2412
22.2463
22.2514
22.2566
22.262
22.2675
22.2731
22.2788
22.2846
22.2906
22.2967
22.3029
22.3092
22.3156
22.3221
22.3286
22.3352
22.3419
22.3485
22.3552
22.3619
22.3686
22.3753
22.382
22.3887
22.3953
22.4019
22.4084
22.4149
22.4213
22.4277
22.434
22.4403
22.4466
22.4527
22.4589
22.4649
22.471
22.477
22.483
22.489
22.495
22.5009
22.5069
22.5129
22.519
22.525
22.5311
22.5373
22.5435
22.5497
22.556
22.5624
22.5688
22.5753
22.5819
22.5886
22.5953
22.6021
22.6089
22.6159
22.6229
22.6299
22.6371
22.6442
22.6514
22.6587
22.666
22.6733
22.6806
22.6879
22.6952
22.7026
22.7099
22.7173
22.7246
22.7319
22.7392
22.7465
22.7538
22.761
22.7682
22.7753
22.7824
22.7893
22.7962
22.803
22.8096
22.8162
22.8226
22.8289
22.8351
22.8412
22.8473
22.8534
22.8594
22.8655
22.8717
22.8779
22.8843
22.8908
22.8975
22.9043
22.9114
22.9186
22.926
22.9336
22.9413
22.9491
22.9571
22.9651
22.9731
22.9812
22.9892
22.9972
23.0052
23.0131
23.0209
23.0286
23.0363
23.0439
23.0514
23.0589
23.0663
23.0737
23.081
23.0884
23.0959
23.1033
23.1109
23.1185
23.1261
23.1339
23.1418
23.1497
23.1578
23.1659
23.1741
23.1823
23.1907
23.199
23.2074
23.2158
23.2243
23.2327
23.2411
23.2495
23.258
23.2664
23.2748
23.2831
23.2915
23.2999
23.3083
23.3168
23.3253
23.3338
23.3423
23.3509
23.3596
23.3684
23.3772
23.386
23.395
23.404
23.4131
23.4223
23.4315
23.4408
23.4501
23.4595
23.4689
23.4784
23.4879
23.4975
23.5071
23.5167
23.5264
23.5361
23.5459
23.5557
23.5656
23.5756
23.5856
23.5956
23.6058
23.616
23.6262
23.6365
23.6467
23.6569
23.667
23.6768
23.6861
23.6947
23.7027
23.7104
23.7177
23.7249
23.7321
23.7394
23.747
23.755
23.7635
23.7725
23.7822
23.7925
23.8035
23.815
23.8271
23.8397
23.8528
23.8662
23.88
23.894
23.9081
23.9223
23.9365
23.9506
23.9645
23.9782
23.9917
24.0048
24.0176
24.03
24.042
24.0536
24.0649
24.0757
24.0863
24.0966
24.1066
24.1164
24.126
24.1355
24.1449
24.1543
24.1636
24.1729
24.1823
24.1918
24.2014
24.2111
24.221
24.2311
24.2414
24.252
24.2629
24.2741
24.2855
24.2972
24.3092
24.3215
24.334
24.3467
24.3597
24.373
24.3864
24.4
24.4138
24.4277
24.4417
24.4559
24.4701
24.4844
24.4988
24.5133
24.5277
24.5422
24.5568
24.5713
24.5859
24.6005
24.6152
24.6299
24.6446
24.6595
24.6744
24.6894
24.7045
24.7197
24.7351
24.7506
24.7663
24.7822
24.7983
24.8146
24.831
24.8477
24.8646
24.8817
24.8991
24.9166
24.9344
24.9524
24.9706
24.989
25.0076
25.0264
25.0454
25.0647
25.0841
25.1038
25.1236
25.1437
25.1639
25.1844
25.2051
25.2261
25.2472
25.2686
25.2903
25.3122
25.3344
25.3569
25.3797
25.4028
25.4263
25.4501
25.4742
25.4987
25.5236
25.5489
25.5746
25.6007
25.6271
25.6541
25.6814
25.7091
25.7372
25.7658
25.7947
25.8241
25.8539
25.8841
25.9146
25.9455
25.9768
26.0085
26.0404
26.0729
26.1055
26.1386
26.1718
26.2055
26.2393
26.2735
26.3079
26.3426
26.3774
26.4126
26.4478
26.4834
26.5191
26.555
26.591
26.6272
26.6635
26.6998
26.7363
26.7727
26.8093
26.8455
26.8821
26.9179
26.9543
26.9893
27.0254
27.0591
27.0946
27.1265
27.1609
27.1901
27.2229
27.2484
27.2789
27.2989
27.3262
27.3385
27.3614
27.363
27.3795
27.3661
27.3732
27.339
27.3323
27.2689
27.2416
27.1368
27.0779
26.9141
26.8069
26.5535
26.3717
25.9836
25.6885
25.1167
24.6292
23.7614
23.0526
21.6919
20.5791
18.5557
20.3645
27.5005
25.9888
24.614
23.4436
22.4936
21.7405
21.1549
20.7068
20.3659
20.1052
19.9027
19.7412
19.6092
19.4982
19.403
19.3197
19.2456
19.1794
19.1195
19.0658
19.0171
18.9726
18.9321
18.8949
18.8607
18.8292
18.8006
18.7747
18.7512
18.7297
18.71
18.6919
18.6752
18.6598
18.6455
18.6321
18.6194
18.6074
18.5958
18.5846
18.5736
18.5629
18.5524
18.542
18.5316
18.5213
18.5112
18.5011
18.4911
18.4814
18.4718
18.4624
18.4534
18.4447
18.4364
18.4285
18.4211
18.4143
18.4081
18.4024
18.3975
18.3931
18.3895
18.3865
18.3843
18.3826
18.3817
18.3813
18.3816
18.3824
18.3838
18.3855
18.3877
18.3903
18.3932
18.3963
18.3996
18.403
18.4065
18.41
18.4135
18.4169
18.4203
18.4235
18.4265
18.4294
18.4321
18.4346
18.4369
18.439
18.4409
18.4427
18.4442
18.4457
18.4471
18.4484
18.4496
18.4508
18.4521
18.4534
18.4548
18.4563
18.458
18.4598
18.4618
18.464
18.4664
18.469
18.4719
18.4751
18.4785
18.4821
18.4859
18.49
18.4942
18.4987
18.5033
18.5081
18.513
18.518
18.5231
18.5282
18.5333
18.5385
18.5437
18.5488
18.5539
18.5589
18.5638
18.5687
18.5734
18.5781
18.5826
18.587
18.5914
18.5956
18.5997
18.6037
18.6077
18.6116
18.6154
18.6192
18.623
18.6268
18.6305
18.6343
18.6382
18.6421
18.646
18.6501
18.6542
18.6584
18.6627
18.6671
18.6716
18.6762
18.6809
18.6857
18.6907
18.6957
18.7007
18.7059
18.7111
18.7164
18.7217
18.727
18.7324
18.7378
18.7432
18.7486
18.754
18.7594
18.7648
18.7701
18.7754
18.7807
18.786
18.7912
18.7963
18.8015
18.8065
18.8116
18.8166
18.8215
18.8265
18.8314
18.8362
18.8411
18.846
18.8508
18.8557
18.8605
18.8654
18.8703
18.8753
18.8802
18.8852
18.8903
18.8954
18.9005
18.9057
18.911
18.9163
18.9217
18.9272
18.9327
18.9382
18.9439
18.9496
18.9553
18.9611
18.967
18.9729
18.9788
18.9848
18.9908
18.9968
19.0029
19.0089
19.015
19.021
19.0271
19.0332
19.0393
19.0453
19.0514
19.0574
19.0634
19.0694
19.0753
19.0811
19.0869
19.0926
19.0981
19.1035
19.1088
19.114
19.1191
19.1241
19.129
19.1339
19.1387
19.1436
19.1484
19.1534
19.1584
19.1635
19.1688
19.1742
19.1798
19.1855
19.1914
19.1975
19.2037
19.2101
19.2166
19.2231
19.2297
19.2364
19.243
19.2496
19.2562
19.2628
19.2692
19.2756
19.282
19.2882
19.2944
19.3005
19.3066
19.3126
19.3186
19.3246
19.3307
19.3367
19.3428
19.349
19.3552
19.3615
19.3678
19.3743
19.3808
19.3874
19.3941
19.4008
19.4076
19.4144
19.4212
19.4281
19.435
19.4419
19.4487
19.4556
19.4625
19.4693
19.4761
19.483
19.4898
19.4966
19.5034
19.5102
19.5171
19.5239
19.5308
19.5378
19.5448
19.5518
19.559
19.5661
19.5734
19.5807
19.588
19.5955
19.603
19.6105
19.6181
19.6258
19.6335
19.6413
19.6491
19.657
19.6649
19.6729
19.6809
19.689
19.6971
19.7054
19.7136
19.722
19.7305
19.739
19.7477
19.7564
19.7652
19.7741
19.7829
19.7918
19.8007
19.8093
19.8175
19.825
19.832
19.8385
19.8446
19.8505
19.8562
19.8619
19.8677
19.8738
19.8803
19.8872
19.8946
19.9025
19.911
19.92
19.9296
19.9396
19.95
19.9608
19.9719
19.9832
19.9947
20.0063
20.018
20.0296
20.0411
20.0524
20.0635
20.0743
20.0848
20.095
20.1048
20.1143
20.1234
20.1322
20.1407
20.1489
20.1568
20.1646
20.1721
20.1795
20.1868
20.194
20.2012
20.2084
20.2156
20.2228
20.2301
20.2375
20.2451
20.2528
20.2608
20.269