/*--------------------------------*- C++ -*----------------------------------*\
| =========                 |                                                 |
| \\      /  F ield         | OpenFOAM: The Open Source CFD Toolbox           |
|  \\    /   O peration     | Version:  2.4.0                                 |
|   \\  /    A nd           | Web:      www.OpenFOAM.org                      |
|    \\/     M anipulation  |                                                 |
\*---------------------------------------------------------------------------*/
FoamFile
{
    version     2.0;
    format      ascii;
    class       volScalarField;
    location    "0/region3d";
    object      pd;
}
// * * * * * * * * * * * * * * * * * * * * * * * * * * * * * * * * * * * * * //

dimensions      [1 -1 -2 0 0 0 0];

internalField   nonuniform List<scalar> 
390000
(
10261.9
10246.7
10242.1
10243.1
10243.1
10242.2
10241.3
10240.2
10238.6
10236.6
10234.5
10232.1
10229.6
10227
10224.3
10221.5
10218.7
10215.9
10213
10210.2
10207.4
10204.6
10201.8
10199.1
10196.5
10193.9
10191.4
10188.9
10186.5
10184.2
10181.9
10179.7
10177.6
10175.5
10173.4
10171.4
10169.4
10167.4
10165.5
10163.5
10161.5
10159.5
10157.5
10155.5
10153.4
10151.3
10149.2
10147
10144.7
10142.4
10140
10137.6
10135.1
10132.6
10130
10127.4
10124.8
10122.1
10119.4
10116.6
10113.9
10111.1
10108.3
10105.6
10102.8
10100
10097.3
10094.6
10091.9
10089.2
10086.6
10084
10081.4
10078.8
10076.3
10073.8
10071.4
10068.9
10066.5
10064.1
10061.7
10059.3
10057
10054.6
10052.2
10049.8
10047.5
10045
10042.6
10040.2
10037.7
10035.2
10032.7
10030.2
10027.6
10025
10022.4
10019.8
10017.1
10014.4
10011.7
10008.9
10006.2
10003.4
10000.6
9997.79
9994.98
9992.17
9989.35
9986.53
9983.71
9980.89
9978.09
9975.29
9972.49
9969.71
9966.94
9964.19
9961.44
9958.7
9955.98
9953.26
9950.55
9947.85
9945.16
9942.47
9939.78
9937.1
9934.41
9931.72
9929.02
9926.32
9923.61
9920.9
9918.17
9915.42
9912.67
9909.9
9907.11
9904.31
9901.49
9898.66
9895.81
9892.95
9890.07
9887.18
9884.27
9881.35
9878.42
9875.48
9872.52
9869.56
9866.6
9863.62
9860.65
9857.67
9854.68
9851.7
9848.71
9845.73
9842.74
9839.76
9836.78
9833.8
9830.82
9827.85
9824.87
9821.9
9818.93
9815.95
9812.98
9810.01
9807.03
9804.05
9801.07
9798.08
9795.09
9792.09
9789.08
9786.06
9783.04
9780
9776.96
9773.9
9770.83
9767.76
9764.67
9761.57
9758.46
9755.33
9752.2
9749.06
9745.9
9742.73
9739.56
9736.37
9733.18
9729.97
9726.76
9723.54
9720.32
9717.08
9713.84
9710.6
9707.35
9704.09
9700.83
9697.57
9694.3
9691.03
9687.76
9684.48
9681.19
9677.91
9674.62
9671.32
9668.02
9664.72
9661.41
9658.1
9654.78
9651.45
9648.12
9644.78
9641.44
9638.08
9634.72
9631.35
9627.97
9624.58
9621.18
9617.77
9614.35
9610.92
9607.49
9604.04
9600.58
9597.11
9593.63
9590.14
9586.64
9583.13
9579.61
9576.08
9572.54
9568.99
9565.44
9561.87
9558.3
9554.72
9551.13
9547.53
9543.92
9540.31
9536.69
9533.06
9529.42
9525.77
9522.12
9518.46
9514.8
9511.13
9507.45
9503.76
9500.07
9496.37
9492.66
9488.95
9485.23
9481.51
9477.77
9474.04
9470.29
9466.54
9462.77
9459
9455.23
9451.44
9447.64
9443.84
9440.02
9436.19
9432.35
9428.5
9424.64
9420.76
9416.87
9412.97
9409.05
9405.12
9401.18
9397.22
9393.25
9389.26
9385.26
9381.24
9377.21
9373.17
9369.11
9365.04
9360.96
9356.86
9352.75
9348.63
9344.5
9340.35
9336.2
9332.03
9327.84
9323.65
9319.44
9315.22
9310.99
9306.74
9302.49
9298.21
9293.93
9289.63
9285.31
9280.98
9276.64
9272.28
9267.91
9263.52
9259.12
9254.7
9250.26
9245.81
9241.34
9236.85
9232.35
9227.83
9223.29
9218.74
9214.18
9209.6
9205.01
9200.41
9195.81
9191.2
9186.59
9182
9177.42
9172.85
9168.3
9163.76
9159.24
9154.74
9150.25
9145.78
9141.32
9136.86
9132.41
9127.96
9123.5
9119.04
9114.55
9110.04
9105.51
9100.95
9096.34
9091.7
9087.02
9082.29
9077.51
9072.68
9067.8
9062.87
9057.88
9052.85
9047.76
9042.62
9037.44
9032.21
9026.94
9021.63
9016.28
9010.9
9005.48
9000.03
8994.55
8989.05
8983.52
8977.97
8972.4
8966.81
8961.2
8955.58
8949.94
8944.28
8938.61
8932.92
8927.22
8921.5
8915.77
8910.02
8904.25
8898.47
8892.67
8886.85
8881.02
8875.17
8869.29
8863.4
8857.48
8851.54
8845.58
8839.59
8833.57
8827.53
8821.46
8815.36
8809.23
8803.07
8796.87
8790.64
8784.38
8778.08
8771.75
8765.38
8758.97
8752.53
8746.05
8739.52
8732.96
8726.36
8719.71
8713.03
8706.3
8699.53
8692.71
8685.85
8678.95
8672
8665
8657.95
8650.86
8643.72
8636.52
8629.28
8621.98
8614.63
8607.23
8599.76
8592.25
8584.67
8577.03
8569.33
8561.57
8553.75
8545.86
8537.9
8529.87
8521.78
8513.61
8505.37
8497.05
8488.65
8480.17
8471.61
8462.96
8454.22
8445.36
8436.42
8427.38
8418.26
8409.05
8399.73
8390.3
8380.74
8371.06
8361.27
8351.36
8341.33
8331.18
8320.89
8310.45
8299.86
8289.11
8278.19
8267.11
8255.86
8244.43
8232.81
8220.97
8208.94
8196.7
8184.24
8171.54
8158.6
8145.39
8131.92
8118.18
8104.16
8089.83
8075.18
8060.18
8044.83
8029.11
8013
7996.48
7979.53
7962.09
7944.16
7925.69
7906.66
7887.02
7866.75
7845.79
7824.1
7801.63
7778.33
7754.16
7729.02
7702.85
7675.56
7647.08
7617.25
7586.01
7553.16
7518.62
7482.09
7443.61
7402.57
7358.93
7311.99
7261.99
7207.84
7150.01
7086.72
7018.79
6943.39
6862.16
6770.39
6671.11
6556.45
6431.8
6283.71
6122.1
5922.6
5703.71
5418.79
5104.66
4665.66
4171.46
3414.18
2505.65
921.806
-1231.35
-5200.81
10262.3
10247.3
10242.4
10243.2
10243.2
10242.2
10241.3
10240.2
10238.6
10236.6
10234.5
10232.1
10229.6
10227
10224.3
10221.5
10218.7
10215.9
10213
10210.2
10207.4
10204.6
10201.8
10199.1
10196.5
10193.9
10191.4
10188.9
10186.5
10184.2
10181.9
10179.7
10177.6
10175.5
10173.4
10171.4
10169.4
10167.4
10165.5
10163.5
10161.5
10159.5
10157.5
10155.5
10153.4
10151.3
10149.2
10146.9
10144.7
10142.4
10140
10137.6
10135.1
10132.6
10130
10127.4
10124.7
10122.1
10119.3
10116.6
10113.9
10111.1
10108.3
10105.6
10102.8
10100
10097.3
10094.6
10091.9
10089.2
10086.6
10084
10081.4
10078.8
10076.3
10073.8
10071.4
10068.9
10066.5
10064.1
10061.7
10059.3
10057
10054.6
10052.2
10049.8
10047.4
10045
10042.6
10040.2
10037.7
10035.2
10032.7
10030.2
10027.6
10025
10022.4
10019.8
10017.1
10014.4
10011.7
10008.9
10006.2
10003.4
10000.6
9997.79
9994.98
9992.16
9989.34
9986.52
9983.7
9980.89
9978.08
9975.28
9972.49
9969.71
9966.94
9964.18
9961.43
9958.7
9955.97
9953.26
9950.55
9947.85
9945.16
9942.47
9939.78
9937.09
9934.41
9931.72
9929.02
9926.32
9923.61
9920.89
9918.16
9915.42
9912.66
9909.89
9907.11
9904.31
9901.49
9898.66
9895.81
9892.94
9890.07
9887.17
9884.26
9881.35
9878.41
9875.47
9872.52
9869.56
9866.59
9863.62
9860.64
9857.66
9854.68
9851.7
9848.71
9845.72
9842.74
9839.76
9836.78
9833.8
9830.82
9827.84
9824.87
9821.9
9818.92
9815.95
9812.98
9810
9807.03
9804.05
9801.07
9798.08
9795.08
9792.08
9789.07
9786.06
9783.03
9780
9776.95
9773.9
9770.83
9767.75
9764.67
9761.57
9758.45
9755.33
9752.2
9749.05
9745.9
9742.73
9739.55
9736.37
9733.17
9729.97
9726.76
9723.54
9720.31
9717.08
9713.84
9710.6
9707.35
9704.09
9700.83
9697.57
9694.3
9691.03
9687.75
9684.47
9681.19
9677.9
9674.61
9671.32
9668.02
9664.72
9661.41
9658.09
9654.78
9651.45
9648.12
9644.78
9641.43
9638.08
9634.72
9631.35
9627.97
9624.58
9621.18
9617.77
9614.35
9610.92
9607.48
9604.03
9600.57
9597.1
9593.62
9590.13
9586.63
9583.12
9579.6
9576.08
9572.54
9568.99
9565.43
9561.87
9558.29
9554.71
9551.12
9547.52
9543.92
9540.3
9536.68
9533.05
9529.41
9525.77
9522.12
9518.46
9514.8
9511.12
9507.44
9503.76
9500.06
9496.37
9492.66
9488.95
9485.23
9481.5
9477.77
9474.03
9470.28
9466.53
9462.77
9459
9455.22
9451.43
9447.64
9443.83
9440.02
9436.19
9432.35
9428.5
9424.63
9420.76
9416.87
9412.97
9409.05
9405.12
9401.17
9397.21
9393.24
9389.25
9385.25
9381.23
9377.2
9373.16
9369.1
9365.03
9360.95
9356.86
9352.75
9348.63
9344.49
9340.35
9336.19
9332.02
9327.84
9323.64
9319.44
9315.22
9310.99
9306.74
9302.48
9298.21
9293.92
9289.62
9285.31
9280.98
9276.64
9272.28
9267.9
9263.52
9259.11
9254.69
9250.25
9245.8
9241.33
9236.85
9232.34
9227.82
9223.29
9218.74
9214.18
9209.6
9205.01
9200.41
9195.8
9191.19
9186.59
9181.99
9177.41
9172.85
9168.29
9163.76
9159.24
9154.73
9150.25
9145.77
9141.31
9136.86
9132.41
9127.95
9123.5
9119.03
9114.54
9110.04
9105.5
9100.94
9096.34
9091.69
9087.01
9082.28
9077.5
9072.67
9067.79
9062.86
9057.87
9052.84
9047.75
9042.62
9037.43
9032.21
9026.94
9021.62
9016.28
9010.89
9005.47
9000.02
8994.55
8989.04
8983.52
8977.97
8972.4
8966.8
8961.2
8955.57
8949.93
8944.27
8938.6
8932.91
8927.21
8921.49
8915.76
8910.01
8904.24
8898.46
8892.66
8886.84
8881.01
8875.16
8869.28
8863.39
8857.47
8851.53
8845.57
8839.58
8833.56
8827.52
8821.45
8815.35
8809.22
8803.05
8796.86
8790.63
8784.37
8778.07
8771.74
8765.37
8758.96
8752.52
8746.03
8739.51
8732.95
8726.35
8719.7
8713.02
8706.29
8699.52
8692.7
8685.84
8678.93
8671.98
8664.99
8657.94
8650.85
8643.7
8636.51
8629.26
8621.97
8614.62
8607.21
8599.75
8592.23
8584.65
8577.02
8569.32
8561.56
8553.73
8545.84
8537.88
8529.85
8521.76
8513.59
8505.35
8497.03
8488.63
8480.15
8471.59
8462.94
8454.19
8445.34
8436.39
8427.36
8418.24
8409.02
8399.71
8390.27
8380.71
8371.03
8361.24
8351.33
8341.31
8331.15
8320.86
8310.42
8299.83
8289.08
8278.16
8267.08
8255.83
8244.4
8232.77
8220.94
8208.9
8196.66
8184.2
8171.5
8158.56
8145.35
8131.88
8118.14
8104.11
8089.78
8075.13
8060.13
8044.78
8029.06
8012.95
7996.43
7979.47
7962.04
7944.1
7925.63
7906.59
7886.95
7866.68
7845.72
7824.02
7801.55
7778.25
7754.07
7728.92
7702.76
7675.46
7646.97
7617.14
7585.89
7553.03
7518.48
7481.94
7443.46
7402.4
7358.75
7311.8
7261.78
7207.61
7149.76
7086.45
7018.48
6943.07
6861.78
6770.02
6670.63
6556
6431.17
6283.16
6121.25
5921.92
5702.5
5417.96
5102.81
4664.83
4168.22
3413.81
2500.02
928.151
-1243.23
-4733.41
10262.5
10248
10243.1
10243.6
10243.5
10242.4
10241.4
10240.3
10238.6
10236.7
10234.5
10232.1
10229.6
10227
10224.3
10221.5
10218.7
10215.9
10213
10210.2
10207.4
10204.6
10201.8
10199.1
10196.5
10193.9
10191.4
10188.9
10186.5
10184.2
10181.9
10179.7
10177.6
10175.5
10173.4
10171.4
10169.4
10167.4
10165.5
10163.5
10161.5
10159.5
10157.5
10155.5
10153.4
10151.3
10149.2
10146.9
10144.7
10142.4
10140
10137.6
10135.1
10132.6
10130
10127.4
10124.7
10122.1
10119.3
10116.6
10113.8
10111.1
10108.3
10105.5
10102.8
10100
10097.3
10094.6
10091.9
10089.2
10086.6
10084
10081.4
10078.8
10076.3
10073.8
10071.4
10068.9
10066.5
10064.1
10061.7
10059.3
10057
10054.6
10052.2
10049.8
10047.4
10045
10042.6
10040.2
10037.7
10035.2
10032.7
10030.2
10027.6
10025
10022.4
10019.8
10017.1
10014.4
10011.7
10008.9
10006.2
10003.4
10000.6
9997.78
9994.97
9992.16
9989.34
9986.52
9983.7
9980.88
9978.08
9975.28
9972.49
9969.71
9966.94
9964.18
9961.43
9958.69
9955.97
9953.25
9950.55
9947.85
9945.15
9942.46
9939.78
9937.09
9934.4
9931.71
9929.02
9926.32
9923.61
9920.89
9918.16
9915.42
9912.66
9909.89
9907.1
9904.3
9901.49
9898.65
9895.8
9892.94
9890.06
9887.17
9884.26
9881.34
9878.41
9875.47
9872.51
9869.56
9866.59
9863.62
9860.64
9857.66
9854.68
9851.69
9848.71
9845.72
9842.74
9839.75
9836.77
9833.79
9830.81
9827.84
9824.86
9821.89
9818.92
9815.95
9812.97
9810
9807.02
9804.04
9801.06
9798.07
9795.08
9792.08
9789.07
9786.05
9783.03
9779.99
9776.95
9773.89
9770.83
9767.75
9764.66
9761.56
9758.45
9755.33
9752.19
9749.05
9745.89
9742.73
9739.55
9736.36
9733.17
9729.96
9726.75
9723.53
9720.31
9717.07
9713.84
9710.59
9707.34
9704.09
9700.83
9697.56
9694.29
9691.02
9687.75
9684.47
9681.18
9677.9
9674.61
9671.31
9668.01
9664.71
9661.4
9658.09
9654.77
9651.45
9648.11
9644.78
9641.43
9638.08
9634.71
9631.34
9627.96
9624.57
9621.17
9617.76
9614.35
9610.92
9607.48
9604.03
9600.57
9597.1
9593.62
9590.13
9586.63
9583.12
9579.6
9576.07
9572.53
9568.98
9565.43
9561.86
9558.29
9554.71
9551.12
9547.52
9543.91
9540.3
9536.68
9533.05
9529.41
9525.77
9522.11
9518.46
9514.79
9511.12
9507.44
9503.75
9500.06
9496.36
9492.65
9488.94
9485.22
9481.5
9477.77
9474.03
9470.28
9466.53
9462.76
9458.99
9455.22
9451.43
9447.63
9443.83
9440.01
9436.18
9432.34
9428.49
9424.63
9420.75
9416.86
9412.96
9409.04
9405.11
9401.17
9397.21
9393.23
9389.25
9385.24
9381.23
9377.2
9373.15
9369.1
9365.03
9360.94
9356.85
9352.74
9348.62
9344.49
9340.34
9336.18
9332.01
9327.83
9323.64
9319.43
9315.21
9310.98
9306.73
9302.47
9298.2
9293.92
9289.62
9285.3
9280.97
9276.63
9272.27
9267.9
9263.51
9259.1
9254.68
9250.25
9245.79
9241.32
9236.84
9232.34
9227.82
9223.28
9218.73
9214.17
9209.59
9205
9200.41
9195.8
9191.19
9186.58
9181.99
9177.41
9172.84
9168.29
9163.75
9159.23
9154.73
9150.24
9145.76
9141.3
9136.85
9132.4
9127.94
9123.49
9119.02
9114.53
9110.03
9105.49
9100.93
9096.33
9091.68
9087
9082.27
9077.49
9072.66
9067.78
9062.85
9057.86
9052.83
9047.74
9042.61
9037.42
9032.2
9026.93
9021.62
9016.27
9010.88
9005.46
9000.01
8994.54
8989.03
8983.51
8977.96
8972.39
8966.8
8961.19
8955.56
8949.92
8944.26
8938.59
8932.9
8927.2
8921.48
8915.75
8910
8904.23
8898.45
8892.65
8886.83
8881
8875.15
8869.27
8863.38
8857.46
8851.52
8845.56
8839.57
8833.55
8827.51
8821.44
8815.34
8809.2
8803.04
8796.85
8790.62
8784.36
8778.06
8771.73
8765.36
8758.95
8752.5
8746.02
8739.5
8732.93
8726.33
8719.69
8713
8706.27
8699.5
8692.68
8685.82
8678.92
8671.97
8664.97
8657.92
8650.83
8643.69
8636.49
8629.25
8621.95
8614.6
8607.19
8599.73
8592.21
8584.63
8576.99
8569.3
8561.53
8553.71
8545.82
8537.86
8529.83
8521.73
8513.56
8505.32
8497
8488.6
8480.13
8471.56
8462.91
8454.17
8445.31
8436.36
8427.33
8418.21
8408.99
8399.68
8390.24
8380.68
8371
8361.21
8351.3
8341.27
8331.12
8320.82
8310.38
8299.79
8289.04
8278.12
8267.04
8255.79
8244.36
8232.73
8220.9
8208.86
8196.62
8184.15
8171.46
8158.51
8145.3
8131.83
8118.09
8104.06
8089.73
8075.08
8060.08
8044.73
8029
8012.88
7996.36
7979.41
7961.97
7944.03
7925.56
7906.51
7886.87
7866.59
7845.63
7823.93
7801.46
7778.15
7753.97
7728.82
7702.64
7675.34
7646.85
7617
7585.76
7552.88
7518.33
7481.78
7443.29
7402.21
7358.56
7311.59
7261.55
7207.37
7149.49
7086.17
7018.17
6942.75
6861.39
6769.64
6670.16
6555.57
6430.58
6282.67
6120.49
5921.38
5701.45
5417.44
5101.27
4664.63
4166.07
3414.8
2498.86
945.318
-1219.66
-4555.67
10262.6
10248.4
10243.7
10244
10243.7
10242.6
10241.6
10240.4
10238.7
10236.7
10234.6
10232.2
10229.6
10227
10224.3
10221.5
10218.7
10215.9
10213
10210.2
10207.4
10204.6
10201.8
10199.1
10196.5
10193.9
10191.4
10188.9
10186.5
10184.2
10181.9
10179.7
10177.6
10175.5
10173.4
10171.4
10169.4
10167.4
10165.5
10163.5
10161.5
10159.5
10157.5
10155.5
10153.4
10151.3
10149.2
10146.9
10144.7
10142.4
10140
10137.6
10135.1
10132.6
10130
10127.4
10124.7
10122
10119.3
10116.6
10113.8
10111.1
10108.3
10105.5
10102.8
10100
10097.3
10094.6
10091.9
10089.2
10086.6
10084
10081.4
10078.8
10076.3
10073.8
10071.4
10068.9
10066.5
10064.1
10061.7
10059.3
10057
10054.6
10052.2
10049.8
10047.4
10045
10042.6
10040.2
10037.7
10035.2
10032.7
10030.2
10027.6
10025
10022.4
10019.8
10017.1
10014.4
10011.7
10008.9
10006.2
10003.4
10000.6
9997.78
9994.97
9992.15
9989.33
9986.51
9983.69
9980.88
9978.07
9975.27
9972.48
9969.7
9966.93
9964.17
9961.43
9958.69
9955.96
9953.25
9950.54
9947.84
9945.15
9942.46
9939.77
9937.09
9934.4
9931.71
9929.02
9926.31
9923.6
9920.89
9918.16
9915.41
9912.66
9909.89
9907.1
9904.3
9901.48
9898.65
9895.8
9892.94
9890.06
9887.16
9884.26
9881.34
9878.4
9875.46
9872.51
9869.55
9866.58
9863.61
9860.63
9857.65
9854.67
9851.69
9848.7
9845.72
9842.73
9839.75
9836.77
9833.79
9830.81
9827.83
9824.86
9821.89
9818.91
9815.94
9812.97
9810
9807.02
9804.04
9801.06
9798.07
9795.07
9792.07
9789.07
9786.05
9783.02
9779.99
9776.94
9773.89
9770.82
9767.74
9764.66
9761.56
9758.44
9755.32
9752.19
9749.04
9745.89
9742.72
9739.54
9736.36
9733.16
9729.96
9726.75
9723.53
9720.3
9717.07
9713.83
9710.59
9707.34
9704.08
9700.82
9697.56
9694.29
9691.02
9687.74
9684.46
9681.18
9677.89
9674.6
9671.31
9668.01
9664.71
9661.4
9658.08
9654.77
9651.44
9648.11
9644.77
9641.42
9638.07
9634.71
9631.34
9627.96
9624.57
9621.17
9617.76
9614.34
9610.91
9607.47
9604.02
9600.56
9597.09
9593.61
9590.12
9586.62
9583.11
9579.59
9576.07
9572.53
9568.98
9565.42
9561.86
9558.28
9554.7
9551.11
9547.51
9543.91
9540.29
9536.67
9533.04
9529.4
9525.76
9522.11
9518.45
9514.78
9511.11
9507.43
9503.75
9500.05
9496.36
9492.65
9488.94
9485.22
9481.49
9477.76
9474.02
9470.27
9466.52
9462.76
9458.99
9455.21
9451.42
9447.63
9443.82
9440
9436.18
9432.34
9428.49
9424.62
9420.75
9416.86
9412.95
9409.04
9405.11
9401.16
9397.2
9393.23
9389.24
9385.24
9381.22
9377.19
9373.15
9369.09
9365.02
9360.94
9356.84
9352.73
9348.61
9344.48
9340.34
9336.18
9332.01
9327.83
9323.63
9319.42
9315.2
9310.97
9306.73
9302.47
9298.19
9293.91
9289.61
9285.29
9280.97
9276.62
9272.26
9267.89
9263.5
9259.1
9254.68
9250.24
9245.79
9241.32
9236.83
9232.33
9227.81
9223.28
9218.73
9214.16
9209.59
9205
9200.4
9195.79
9191.18
9186.58
9181.98
9177.4
9172.83
9168.28
9163.74
9159.22
9154.72
9150.23
9145.75
9141.29
9136.84
9132.39
9127.93
9123.48
9119.01
9114.52
9110.01
9105.48
9100.92
9096.31
9091.67
9086.99
9082.26
9077.48
9072.65
9067.77
9062.84
9057.85
9052.82
9047.73
9042.6
9037.41
9032.19
9026.92
9021.61
9016.26
9010.87
9005.45
9000.01
8994.53
8989.03
8983.5
8977.95
8972.38
8966.79
8961.18
8955.55
8949.91
8944.25
8938.58
8932.89
8927.19
8921.47
8915.74
8909.99
8904.22
8898.44
8892.64
8886.82
8880.99
8875.13
8869.26
8863.37
8857.45
8851.51
8845.54
8839.55
8833.54
8827.5
8821.42
8815.32
8809.19
8803.03
8796.83
8790.61
8784.34
8778.05
8771.71
8765.34
8758.93
8752.49
8746.01
8739.48
8732.92
8726.32
8719.67
8712.98
8706.26
8699.48
8692.67
8685.81
8678.9
8671.95
8664.95
8657.91
8650.81
8643.67
8636.47
8629.23
8621.93
8614.58
8607.17
8599.71
8592.19
8584.61
8576.97
8569.28
8561.51
8553.69
8545.8
8537.84
8529.81
8521.71
8513.54
8505.3
8496.98
8488.58
8480.1
8471.54
8462.88
8454.14
8445.28
8436.34
8427.3
8418.18
8408.97
8399.65
8390.21
8380.65
8370.97
8361.17
8351.26
8341.24
8331.08
8320.79
8310.35
8299.76
8289
8278.09
8267.01
8255.75
8244.32
8232.69
8220.86
8208.82
8196.58
8184.11
8171.41
8158.47
8145.26
8131.78
8118.04
8104.01
8089.68
8075.03
8060.03
8044.67
8028.95
8012.83
7996.31
7979.35
7961.91
7943.97
7925.49
7906.45
7886.8
7866.52
7845.55
7823.85
7801.38
7778.07
7753.88
7728.73
7702.55
7675.24
7646.75
7616.9
7585.64
7552.76
7518.21
7481.65
7443.15
7402.08
7358.41
7311.43
7261.38
7207.2
7149.3
7085.98
7017.95
6942.55
6861.14
6769.43
6669.86
6555.36
6430.22
6282.5
6120.06
5921.35
5700.9
5417.73
5100.54
4665.92
4165.28
3419.3
2501.09
978.118
-1181.87
-4377.84
10262.6
10248.9
10244.3
10244.3
10243.9
10242.8
10241.7
10240.5
10238.8
10236.8
10234.6
10232.2
10229.7
10227
10224.3
10221.5
10218.7
10215.9
10213
10210.2
10207.4
10204.6
10201.8
10199.1
10196.5
10193.9
10191.4
10188.9
10186.5
10184.2
10181.9
10179.7
10177.6
10175.5
10173.4
10171.4
10169.4
10167.4
10165.5
10163.5
10161.5
10159.5
10157.5
10155.5
10153.4
10151.3
10149.2
10146.9
10144.7
10142.4
10140
10137.6
10135.1
10132.6
10130
10127.4
10124.7
10122
10119.3
10116.6
10113.8
10111.1
10108.3
10105.5
10102.8
10100
10097.3
10094.6
10091.9
10089.2
10086.6
10084
10081.4
10078.8
10076.3
10073.8
10071.4
10068.9
10066.5
10064.1
10061.7
10059.3
10057
10054.6
10052.2
10049.8
10047.4
10045
10042.6
10040.2
10037.7
10035.2
10032.7
10030.2
10027.6
10025
10022.4
10019.8
10017.1
10014.4
10011.7
10008.9
10006.1
10003.4
10000.6
9997.77
9994.96
9992.14
9989.32
9986.5
9983.69
9980.87
9978.07
9975.27
9972.48
9969.7
9966.93
9964.17
9961.42
9958.68
9955.96
9953.24
9950.54
9947.84
9945.14
9942.46
9939.77
9937.08
9934.4
9931.71
9929.01
9926.31
9923.6
9920.88
9918.15
9915.41
9912.65
9909.88
9907.1
9904.29
9901.48
9898.64
9895.8
9892.93
9890.05
9887.16
9884.25
9881.33
9878.4
9875.46
9872.5
9869.54
9866.58
9863.61
9860.63
9857.65
9854.66
9851.68
9848.69
9845.71
9842.73
9839.74
9836.76
9833.78
9830.8
9827.83
9824.86
9821.88
9818.91
9815.94
9812.97
9809.99
9807.01
9804.04
9801.05
9798.06
9795.07
9792.07
9789.06
9786.04
9783.02
9779.98
9776.94
9773.88
9770.82
9767.74
9764.65
9761.55
9758.44
9755.32
9752.18
9749.04
9745.88
9742.71
9739.54
9736.35
9733.16
9729.95
9726.74
9723.52
9720.3
9717.06
9713.82
9710.58
9707.33
9704.07
9700.82
9697.55
9694.28
9691.01
9687.74
9684.46
9681.17
9677.89
9674.6
9671.3
9668
9664.7
9661.39
9658.08
9654.76
9651.44
9648.1
9644.77
9641.42
9638.07
9634.7
9631.33
9627.95
9624.56
9621.16
9617.75
9614.34
9610.91
9607.47
9604.02
9600.56
9597.09
9593.61
9590.12
9586.62
9583.11
9579.59
9576.06
9572.52
9568.97
9565.42
9561.85
9558.28
9554.7
9551.11
9547.51
9543.9
9540.29
9536.66
9533.03
9529.4
9525.75
9522.1
9518.44
9514.78
9511.11
9507.43
9503.74
9500.05
9496.35
9492.64
9488.93
9485.21
9481.49
9477.75
9474.01
9470.27
9466.51
9462.75
9458.98
9455.2
9451.42
9447.62
9443.81
9440
9436.17
9432.33
9428.48
9424.62
9420.74
9416.85
9412.95
9409.03
9405.1
9401.15
9397.19
9393.22
9389.23
9385.23
9381.21
9377.18
9373.14
9369.08
9365.01
9360.93
9356.84
9352.73
9348.61
9344.47
9340.33
9336.17
9332
9327.82
9323.62
9319.42
9315.2
9310.96
9306.72
9302.46
9298.19
9293.9
9289.6
9285.29
9280.96
9276.62
9272.26
9267.88
9263.5
9259.09
9254.67
9250.23
9245.78
9241.31
9236.83
9232.32
9227.81
9223.27
9218.72
9214.16
9209.58
9204.99
9200.4
9195.79
9191.18
9186.57
9181.98
9177.39
9172.83
9168.27
9163.74
9159.21
9154.71
9150.22
9145.75
9141.28
9136.83
9132.38
9127.92
9123.47
9119
9114.51
9110
9105.47
9100.9
9096.3
9091.66
9086.98
9082.25
9077.47
9072.64
9067.76
9062.83
9057.84
9052.81
9047.72
9042.59
9037.4
9032.18
9026.91
9021.6
9016.25
9010.86
9005.45
9000
8994.52
8989.02
8983.49
8977.94
8972.37
8966.78
8961.17
8955.54
8949.9
8944.24
8938.57
8932.88
8927.18
8921.46
8915.73
8909.98
8904.21
8898.43
8892.63
8886.81
8880.98
8875.12
8869.25
8863.35
8857.44
8851.5
8845.53
8839.54
8833.53
8827.48
8821.41
8815.31
8809.18
8803.02
8796.82
8790.59
8784.33
8778.03
8771.7
8765.33
8758.92
8752.48
8745.99
8739.47
8732.9
8726.3
8719.66
8712.97
8706.24
8699.47
8692.65
8685.79
8678.89
8671.93
8664.94
8657.89
8650.8
8643.65
8636.46
8629.21
8621.91
8614.56
8607.15
8599.69
8592.17
8584.59
8576.96
8569.26
8561.49
8553.67
8545.77
8537.82
8529.79
8521.69
8513.52
8505.27
8496.95
8488.56
8480.08
8471.51
8462.86
8454.12
8445.26
8436.31
8427.28
8418.15
8408.94
8399.62
8390.18
8380.62
8370.94
8361.14
8351.23
8341.21
8331.05
8320.76
8310.32
8299.72
8288.97
8278.05
8266.97
8255.72
8244.28
8232.65
8220.82
8208.78
8196.54
8184.07
8171.37
8158.42
8145.21
8131.74
8118
8103.97
8089.63
8074.98
8059.98
8044.62
8028.9
8012.78
7996.25
7979.29
7961.85
7943.91
7925.43
7906.38
7886.74
7866.45
7845.49
7823.78
7801.31
7777.99
7753.8
7728.64
7702.47
7675.16
7646.66
7616.8
7585.55
7552.66
7518.1
7481.54
7443.04
7401.97
7358.29
7311.31
7261.25
7207.08
7149.16
7085.86
7017.79
6942.43
6860.97
6769.34
6669.68
6555.32
6430.04
6282.59
6119.88
5921.72
5700.73
5418.68
5100.5
4668.41
4166.05
3426.85
2508.12
1022.19
-1125.76
-4186.98
10262.6
10249.3
10244.7
10244.6
10244.1
10243
10241.9
10240.6
10238.9
10236.9
10234.7
10232.3
10229.7
10227.1
10224.4
10221.6
10218.8
10215.9
10213.1
10210.2
10207.4
10204.6
10201.8
10199.1
10196.5
10193.9
10191.4
10188.9
10186.5
10184.2
10181.9
10179.7
10177.6
10175.5
10173.4
10171.4
10169.4
10167.4
10165.5
10163.5
10161.5
10159.5
10157.5
10155.5
10153.4
10151.3
10149.2
10146.9
10144.7
10142.4
10140
10137.6
10135.1
10132.6
10130
10127.4
10124.7
10122
10119.3
10116.6
10113.8
10111.1
10108.3
10105.5
10102.8
10100
10097.3
10094.6
10091.9
10089.2
10086.6
10084
10081.4
10078.8
10076.3
10073.8
10071.4
10068.9
10066.5
10064.1
10061.7
10059.3
10057
10054.6
10052.2
10049.8
10047.4
10045
10042.6
10040.2
10037.7
10035.2
10032.7
10030.2
10027.6
10025
10022.4
10019.8
10017.1
10014.4
10011.7
10008.9
10006.1
10003.4
10000.6
9997.77
9994.95
9992.14
9989.32
9986.5
9983.68
9980.87
9978.06
9975.26
9972.47
9969.69
9966.92
9964.16
9961.42
9958.68
9955.95
9953.24
9950.53
9947.83
9945.14
9942.45
9939.76
9937.08
9934.39
9931.7
9929.01
9926.31
9923.6
9920.88
9918.15
9915.41
9912.65
9909.88
9907.09
9904.29
9901.47
9898.64
9895.79
9892.93
9890.05
9887.15
9884.25
9881.33
9878.39
9875.45
9872.5
9869.54
9866.57
9863.6
9860.62
9857.64
9854.66
9851.67
9848.69
9845.7
9842.72
9839.74
9836.76
9833.78
9830.8
9827.82
9824.85
9821.88
9818.9
9815.93
9812.96
9809.99
9807.01
9804.03
9801.05
9798.06
9795.07
9792.06
9789.06
9786.04
9783.01
9779.98
9776.93
9773.88
9770.81
9767.74
9764.65
9761.55
9758.43
9755.31
9752.18
9749.03
9745.88
9742.71
9739.53
9736.35
9733.15
9729.95
9726.74
9723.52
9720.29
9717.06
9713.82
9710.57
9707.32
9704.07
9700.81
9697.55
9694.28
9691.01
9687.73
9684.45
9681.17
9677.88
9674.59
9671.3
9668
9664.7
9661.39
9658.07
9654.76
9651.43
9648.1
9644.76
9641.41
9638.06
9634.7
9631.33
9627.95
9624.56
9621.16
9617.75
9614.33
9610.9
9607.46
9604.01
9600.55
9597.08
9593.6
9590.11
9586.61
9583.1
9579.58
9576.05
9572.52
9568.97
9565.41
9561.85
9558.27
9554.69
9551.1
9547.5
9543.89
9540.28
9536.66
9533.03
9529.39
9525.75
9522.1
9518.44
9514.77
9511.1
9507.42
9503.74
9500.04
9496.34
9492.64
9488.93
9485.21
9481.48
9477.75
9474.01
9470.26
9466.51
9462.75
9458.98
9455.2
9451.41
9447.61
9443.81
9439.99
9436.16
9432.32
9428.47
9424.61
9420.73
9416.84
9412.94
9409.02
9405.09
9401.15
9397.19
9393.21
9389.23
9385.22
9381.21
9377.18
9373.13
9369.08
9365.01
9360.92
9356.83
9352.72
9348.6
9344.47
9340.32
9336.16
9331.99
9327.81
9323.62
9319.41
9315.19
9310.96
9306.71
9302.45
9298.18
9293.89
9289.59
9285.28
9280.95
9276.61
9272.25
9267.88
9263.49
9259.08
9254.66
9250.23
9245.77
9241.3
9236.82
9232.32
9227.8
9223.27
9218.72
9214.15
9209.58
9204.99
9200.39
9195.78
9191.17
9186.56
9181.97
9177.39
9172.82
9168.27
9163.73
9159.21
9154.7
9150.21
9145.74
9141.27
9136.82
9132.37
9127.91
9123.46
9118.99
9114.5
9109.99
9105.46
9100.89
9096.29
9091.65
9086.97
9082.24
9077.46
9072.63
9067.75
9062.82
9057.83
9052.8
9047.71
9042.58
9037.39
9032.17
9026.9
9021.59
9016.24
9010.85
9005.44
8999.99
8994.51
8989.01
8983.48
8977.93
8972.36
8966.77
8961.16
8955.53
8949.89
8944.23
8938.56
8932.87
8927.17
8921.45
8915.72
8909.97
8904.2
8898.42
8892.62
8886.8
8880.96
8875.11
8869.24
8863.34
8857.42
8851.48
8845.52
8839.53
8833.51
8827.47
8821.4
8815.3
8809.17
8803
8796.81
8790.58
8784.32
8778.02
8771.68
8765.31
8758.91
8752.46
8745.98
8739.45
8732.89
8726.29
8719.64
8712.95
8706.23
8699.45
8692.64
8685.78
8678.87
8671.92
8664.92
8657.87
8650.78
8643.63
8636.44
8629.19
8621.89
8614.54
8607.14
8599.67
8592.15
8584.57
8576.94
8569.24
8561.47
8553.65
8545.75
8537.79
8529.77
8521.67
8513.5
8505.25
8496.93
8488.53
8480.05
8471.49
8462.83
8454.09
8445.23
8436.28
8427.25
8418.13
8408.91
8399.59
8390.15
8380.59
8370.91
8361.11
8351.2
8341.17
8331.02
8320.72
8310.28
8299.69
8288.93
8278.02
8266.93
8255.68
8244.24
8232.61
8220.78
8208.74
8196.5
8184.03
8171.33
8158.38
8145.17
8131.7
8117.95
8103.92
8089.59
8074.93
8059.93
8044.57
8028.85
8012.73
7996.2
7979.24
7961.8
7943.85
7925.37
7906.32
7886.68
7866.39
7845.42
7823.71
7801.24
7777.92
7753.73
7728.57
7702.39
7675.08
7646.58
7616.72
7585.46
7552.58
7518.02
7481.45
7442.96
7401.89
7358.21
7311.23
7261.16
7207
7149.06
7085.79
7017.7
6942.39
6860.88
6769.35
6669.62
6555.44
6430.01
6282.9
6119.94
5922.46
5700.94
5420.23
5101.16
4671.98
4168.3
3437.72
2519.06
1076.26
-1053.43
-3977.53
10262.7
10249.7
10245.1
10244.8
10244.3
10243.1
10242
10240.6
10238.9
10236.9
10234.7
10232.3
10229.8
10227.1
10224.4
10221.6
10218.8
10215.9
10213.1
10210.2
10207.4
10204.6
10201.8
10199.1
10196.5
10193.9
10191.4
10188.9
10186.5
10184.2
10181.9
10179.7
10177.6
10175.5
10173.4
10171.4
10169.4
10167.4
10165.5
10163.5
10161.5
10159.6
10157.5
10155.5
10153.4
10151.3
10149.2
10146.9
10144.7
10142.4
10140
10137.6
10135.1
10132.6
10130
10127.4
10124.7
10122
10119.3
10116.6
10113.8
10111.1
10108.3
10105.5
10102.8
10100
10097.3
10094.6
10091.9
10089.2
10086.6
10083.9
10081.4
10078.8
10076.3
10073.8
10071.3
10068.9
10066.5
10064.1
10061.7
10059.3
10056.9
10054.6
10052.2
10049.8
10047.4
10045
10042.6
10040.2
10037.7
10035.2
10032.7
10030.2
10027.6
10025
10022.4
10019.8
10017.1
10014.4
10011.6
10008.9
10006.1
10003.4
10000.6
9997.76
9994.95
9992.13
9989.31
9986.49
9983.67
9980.86
9978.05
9975.25
9972.46
9969.68
9966.91
9964.16
9961.41
9958.67
9955.95
9953.23
9950.53
9947.83
9945.14
9942.45
9939.76
9937.07
9934.39
9931.7
9929
9926.3
9923.59
9920.88
9918.14
9915.4
9912.65
9909.87
9907.09
9904.29
9901.47
9898.64
9895.79
9892.92
9890.04
9887.15
9884.24
9881.32
9878.39
9875.45
9872.49
9869.53
9866.57
9863.59
9860.62
9857.64
9854.65
9851.67
9848.68
9845.7
9842.71
9839.73
9836.75
9833.77
9830.79
9827.82
9824.84
9821.87
9818.9
9815.93
9812.96
9809.98
9807.01
9804.03
9801.04
9798.05
9795.06
9792.06
9789.05
9786.04
9783.01
9779.98
9776.93
9773.87
9770.81
9767.73
9764.64
9761.54
9758.43
9755.31
9752.17
9749.03
9745.87
9742.7
9739.53
9736.34
9733.15
9729.94
9726.73
9723.51
9720.29
9717.05
9713.81
9710.57
9707.32
9704.06
9700.8
9697.54
9694.27
9691
9687.72
9684.45
9681.16
9677.88
9674.59
9671.29
9667.99
9664.69
9661.38
9658.07
9654.75
9651.43
9648.09
9644.76
9641.41
9638.06
9634.69
9631.32
9627.94
9624.55
9621.15
9617.74
9614.33
9610.9
9607.46
9604.01
9600.55
9597.08
9593.6
9590.11
9586.61
9583.1
9579.58
9576.05
9572.51
9568.96
9565.4
9561.84
9558.27
9554.68
9551.09
9547.49
9543.89
9540.27
9536.65
9533.02
9529.39
9525.74
9522.09
9518.43
9514.77
9511.09
9507.41
9503.73
9500.04
9496.34
9492.63
9488.92
9485.2
9481.47
9477.74
9474
9470.26
9466.5
9462.74
9458.97
9455.19
9451.4
9447.61
9443.8
9439.98
9436.16
9432.32
9428.47
9424.6
9420.73
9416.84
9412.93
9409.02
9405.08
9401.14
9397.18
9393.21
9389.22
9385.22
9381.2
9377.17
9373.13
9369.07
9365
9360.92
9356.82
9352.71
9348.59
9344.46
9340.31
9336.16
9331.99
9327.8
9323.61
9319.4
9315.18
9310.95
9306.7
9302.44
9298.17
9293.89
9289.59
9285.27
9280.94
9276.6
9272.24
9267.87
9263.48
9259.08
9254.66
9250.22
9245.77
9241.3
9236.81
9232.31
9227.79
9223.26
9218.71
9214.15
9209.57
9204.98
9200.38
9195.78
9191.17
9186.56
9181.96
9177.38
9172.82
9168.26
9163.72
9159.2
9154.7
9150.21
9145.73
9141.27
9136.81
9132.36
9127.9
9123.45
9118.98
9114.49
9109.98
9105.45
9100.88
9096.28
9091.64
9086.95
9082.22
9077.45
9072.62
9067.74
9062.81
9057.82
9052.79
9047.7
9042.57
9037.38
9032.16
9026.89
9021.58
9016.23
9010.84
9005.43
8999.98
8994.5
8989
8983.47
8977.92
8972.35
8966.76
8961.15
8955.52
8949.88
8944.22
8938.55
8932.86
8927.16
8921.44
8915.7
8909.95
8904.19
8898.4
8892.61
8886.79
8880.95
8875.1
8869.22
8863.33